# vtk DataFile Version 3.0
out2_model.02   UTM: 14U 
ASCII
DATASET RECTILINEAR_GRID
DIMENSIONS 68 49 53
X_COORDINATES 68 float
-448925.5 -398925.5 -358925.5 -336425.5 -324925.5 -318425.5 -312962.5 -305273.5 -296543.5 -289883.5 -281512.5 -269212.5 -257127.5 -248188.5 -238759.5 -227174.5 -218312.5 -209580.5 -197845.5 -185070.5 -173793.5 -163976.5 -150091.5 -133036.5 -120822.5 -114198.5 -106103.5 -97097.5 -90194.5 -82453.5 -72924.5 -64761.5 -55733.5 -43198.5 -31273.5 -21806.5 -14773.0 -8508.0 -487.5 8096.5 21948.5 42678.5 62428.5 80608.5 100013.5 118588.5 134188.5 148143.5 158725.5 167172.0 176624.5 186198.5 197944.5 209655.5 222231.5 235601.5 245384.5 254496.5 268740.5 283760.5 294185.5 307500.5 318425.5 324925.5 336425.5 358925.5 398925.5 448925.5 
Y_COORDINATES 49 float
-308029.5 -258029.5 -218029.5 -195529.5 -184029.5 -177529.5 -170398.0 -162422.0 -154139.5 -144270.0 -132468.5 -120293.5 -109668.5 -96538.5 -82288.5 -71792.5 -64142.0 -55492.5 -43987.5 -33971.0 -25374.5 -16229.5 -7247.5 2325.5 12031.5 22131.5 31003.5 37713.5 46431.5 53895.5 59621.5 65862.5 72107.5 81463.5 91670.5 101977.5 112937.5 123385.0 131998.5 142124.5 156279.5 168336.0 173838.5 177529.5 184029.5 195529.5 218029.5 258029.5 308029.5 
Z_COORDINATES 53 float
-5.0 -11.4575 -14.798 -19.1125 -24.6845 -31.8815 -41.178 -53.183 -68.688 -88.713 -111.638 -137.633 -169.683 -209.193 -257.903 -317.958 -391.998 -483.278 -595.828 -734.578 -905.628 -1116.478 -1376.428 -1696.928 -2092.028 -2579.128 -3179.678 -3920.078 -4832.878 -5958.378 -7345.878 -8956.378 -10694.878 -12642.378 -14937.878 -17643.878 -20833.378 -24592.878 -29024.878 -34249.378 -40407.878 -47667.378 -56224.378 -66308.878 -78198.878 -92218.878 -108298.878 -126733.878 -148303.878 -173538.878 -203063.878 -237608.878 -278018.878 
POINT_DATA 176596
SCALARS Resistivity float
LOOKUP_TABLE default
10010.0
10010.0
10010.0
10010.0
10010.0
10010.0
10010.0
10010.0
10010.0
10010.0
10010.0
10010.0
10010.0
10010.0
10010.0
10010.0
10010.0
9996.0
9981.0
9961.0
9935.0
9915.0
9934.0
10020.0
10160.0
10270.0
10290.0
10220.0
10130.0
10070.0
10020.0
10010.0
9994.0
9986.0
9984.0
9984.0
9984.0
9983.0
9981.0
9980.0
9981.0
9983.0
9988.0
9993.0
10010.0
10010.0
10010.0
10010.0
10010.0
10010.0
10020.0
10020.0
10030.0
10040.0
10050.0
10060.0
10070.0
10080.0
10090.0
10080.0
10080.0
10070.0
10070.0
10070.0
10090.0
10100.0
10080.0
10050.0
10010.0
10010.0
10010.0
10010.0
10010.0
10010.0
10010.0
10010.0
10010.0
10010.0
10010.0
10010.0
10020.0
10020.0
10020.0
10010.0
10010.0
9986.0
9960.0
9917.0
9858.0
9806.0
9836.0
10040.0
10360.0
10620.0
10630.0
10490.0
10310.0
10150.0
10060.0
10010.0
9994.0
9981.0
9977.0
9977.0
9975.0
9973.0
9969.0
9967.0
9966.0
9972.0
9981.0
9991.0
10010.0
10010.0
10010.0
10010.0
10020.0
10020.0
10030.0
10040.0
10050.0
10070.0
10090.0
10110.0
10130.0
10140.0
10150.0
10140.0
10120.0
10100.0
10110.0
10120.0
10130.0
10140.0
10130.0
10090.0
10010.0
10020.0
10020.0
10010.0
10010.0
10010.0
10010.0
10010.0
10010.0
10010.0
10010.0
10020.0
10020.0
10020.0
10020.0
10010.0
9996.0
9975.0
9933.0
9853.0
9739.0
9639.0
9696.0
10070.0
10700.0
11190.0
11220.0
10910.0
10550.0
10270.0
10130.0
10020.0
10000.0
9983.0
9975.0
9973.0
9970.0
9967.0
9961.0
9957.0
9957.0
9963.0
9975.0
9986.0
9990.0
10010.0
10010.0
10010.0
10020.0
10020.0
10030.0
10050.0
10070.0
10100.0
10130.0
10160.0
10190.0
10210.0
10220.0
10210.0
10200.0
10180.0
10140.0
10150.0
10170.0
10180.0
10150.0
10110.0
10010.0
10010.0
10020.0
10010.0
10010.0
10010.0
10010.0
10010.0
10010.0
10010.0
10020.0
10020.0
10020.0
10020.0
10020.0
10020.0
10010.0
9967.0
9902.0
9784.0
9613.0
9476.0
9589.0
10200.0
11220.0
11960.0
11940.0
11410.0
10830.0
10420.0
10170.0
10070.0
10000.0
9988.0
9978.0
9973.0
9970.0
9964.0
9957.0
9951.0
9953.0
9963.0
9976.0
9987.0
9991.0
10010.0
10010.0
10010.0
10010.0
10020.0
10030.0
10050.0
10090.0
10120.0
10160.0
10210.0
10250.0
10270.0
10300.0
10290.0
10250.0
10200.0
10170.0
10150.0
10170.0
10180.0
10160.0
10110.0
10010.0
10010.0
10010.0
10010.0
10010.0
10010.0
10010.0
10010.0
10010.0
10010.0
10010.0
10020.0
10020.0
10030.0
10030.0
10030.0
10010.0
9974.0
9892.0
9761.0
9594.0
9518.0
9809.0
10760.0
12130.0
12910.0
12620.0
11780.0
10970.0
10450.0
10170.0
10070.0
10000.0
9995.0
9986.0
9981.0
9976.0
9968.0
9956.0
9949.0
9953.0
9969.0
9986.0
9995.0
10010.0
10010.0
10010.0
10010.0
10010.0
10010.0
10020.0
10050.0
10090.0
10130.0
10190.0
10240.0
10300.0
10360.0
10380.0
10340.0
10290.0
10220.0
10170.0
10150.0
10160.0
10170.0
10150.0
10100.0
10010.0
10010.0
10010.0
10010.0
10010.0
10010.0
10010.0
10010.0
10010.0
10010.0
10020.0
10030.0
10040.0
10060.0
10080.0
10080.0
10060.0
10010.0
9945.0
9868.0
9863.0
10120.0
10910.0
12410.0
13930.0
14170.0
13170.0
11870.0
10890.0
10350.0
10120.0
10040.0
10000.0
10000.0
9996.0
9992.0
9987.0
9975.0
9957.0
9946.0
9955.0
9983.0
10010.0
10020.0
10020.0
10010.0
10010.0
9994.0
10010.0
10010.0
10020.0
10060.0
10090.0
10120.0
10170.0
10220.0
10290.0
10350.0
10390.0
10370.0
10320.0
10230.0
10150.0
10120.0
10130.0
10170.0
10150.0
10100.0
10010.0
10010.0
10010.0
10010.0
10010.0
10010.0
10010.0
10010.0
10010.0
10020.0
10030.0
10060.0
10080.0
10120.0
10160.0
10190.0
10180.0
10130.0
10080.0
10140.0
10490.0
11470.0
13400.0
15830.0
17080.0
15840.0
13550.0
11690.0
10610.0
10150.0
10010.0
10000.0
10000.0
10010.0
10010.0
10010.0
10000.0
9994.0
9964.0
9943.0
9964.0
10010.0
10060.0
10070.0
10050.0
10030.0
10010.0
9996.0
9998.0
10010.0
10040.0
10060.0
10090.0
10120.0
10120.0
10150.0
10190.0
10270.0
10340.0
10350.0
10320.0
10210.0
10080.0
10050.0
10090.0
10160.0
10170.0
10120.0
10010.0
10010.0
10010.0
10010.0
10010.0
10010.0
10010.0
10010.0
10020.0
10030.0
10060.0
10090.0
10150.0
10220.0
10310.0
10380.0
10410.0
10370.0
10330.0
10480.0
11170.0
12990.0
16240.0
19710.0
20140.0
17020.0
13570.0
11340.0
10280.0
9938.0
9927.0
10000.0
10060.0
10070.0
10070.0
10070.0
10080.0
10050.0
10000.0
9970.0
10010.0
10100.0
10180.0
10170.0
10110.0
10050.0
10020.0
10010.0
9998.0
10030.0
10060.0
10100.0
10120.0
10120.0
10050.0
10010.0
9985.0
10050.0
10160.0
10260.0
10230.0
10080.0
9935.0
9913.0
10030.0
10150.0
10200.0
10160.0
10010.0
10010.0
10020.0
10020.0
10010.0
10010.0
10010.0
10020.0
10030.0
10050.0
10090.0
10160.0
10270.0
10430.0
10630.0
10810.0
10900.0
10820.0
10690.0
10760.0
11470.0
13360.0
16760.0
20020.0
19730.0
16230.0
12930.0
10920.0
10070.0
9885.0
9985.0
10120.0
10180.0
10160.0
10150.0
10180.0
10230.0
10210.0
10140.0
10080.0
10150.0
10320.0
10410.0
10350.0
10240.0
10110.0
10040.0
10010.0
10020.0
10070.0
10140.0
10210.0
10230.0
10150.0
10010.0
9862.0
9773.0
9802.0
9957.0
10100.0
10100.0
9871.0
9681.0
9713.0
9935.0
10170.0
10250.0
10200.0
10010.0
10020.0
10020.0
10020.0
10020.0
10020.0
10020.0
10020.0
10040.0
10080.0
10130.0
10240.0
10430.0
10690.0
11070.0
11440.0
11680.0
11610.0
11330.0
11230.0
11600.0
12810.0
15070.0
17070.0
16700.0
14370.0
12230.0
10910.0
10330.0
10260.0
10370.0
10470.0
10460.0
10360.0
10320.0
10410.0
10530.0
10560.0
10450.0
10350.0
10410.0
10620.0
10720.0
10600.0
10390.0
10180.0
10070.0
10030.0
10050.0
10160.0
10310.0
10460.0
10500.0
10360.0
10110.0
9860.0
9703.0
9716.0
9880.0
10060.0
9986.0
9652.0
9416.0
9520.0
9872.0
10220.0
10340.0
10270.0
10010.0
10020.0
10020.0
10020.0
10020.0
10020.0
10020.0
10030.0
10050.0
10100.0
10180.0
10330.0
10590.0
11000.0
11590.0
12230.0
12690.0
12680.0
12330.0
12040.0
12070.0
12480.0
13430.0
14270.0
14030.0
13020.0
12180.0
11630.0
11370.0
11250.0
11230.0
11190.0
11000.0
10720.0
10610.0
10800.0
11060.0
11140.0
10940.0
10710.0
10710.0
10910.0
10980.0
10790.0
10490.0
10240.0
10100.0
10060.0
10140.0
10320.0
10610.0
10930.0
11020.0
10780.0
10380.0
10010.0
9783.0
9763.0
9915.0
10080.0
9955.0
9529.0
9291.0
9487.0
9969.0
10380.0
10510.0
10370.0
10010.0
10020.0
10020.0
10020.0
10020.0
10020.0
10020.0
10030.0
10050.0
10110.0
10200.0
10400.0
10700.0
11210.0
11950.0
12790.0
13400.0
13470.0
13060.0
12730.0
12520.0
12340.0
12440.0
12580.0
12480.0
12350.0
12450.0
12660.0
12820.0
12720.0
12510.0
12280.0
11840.0
11260.0
11050.0
11360.0
11810.0
11880.0
11470.0
11000.0
10850.0
10920.0
10960.0
10750.0
10480.0
10220.0
10100.0
10090.0
10230.0
10550.0
11080.0
11630.0
11810.0
11400.0
10700.0
10100.0
9709.0
9602.0
9740.0
9934.0
9881.0
9522.0
9379.0
9696.0
10270.0
10700.0
10750.0
10490.0
10010.0
10020.0
10020.0
10020.0
10020.0
10020.0
10030.0
10030.0
10060.0
10120.0
10210.0
10390.0
10710.0
11200.0
11870.0
12600.0
13130.0
13180.0
12830.0
12490.0
12170.0
11700.0
11440.0
11360.0
11380.0
11650.0
12300.0
13260.0
14170.0
14350.0
14020.0
13560.0
12840.0
11950.0
11600.0
12050.0
12690.0
12750.0
12000.0
11240.0
10850.0
10770.0
10710.0
10570.0
10360.0
10180.0
10080.0
10110.0
10300.0
10770.0
11550.0
12390.0
12650.0
11970.0
10910.0
10030.0
9510.0
9327.0
9451.0
9719.0
9818.0
9640.0
9672.0
10130.0
10750.0
11140.0
11050.0
10660.0
10020.0
10020.0
10030.0
10030.0
10030.0
10030.0
10030.0
10040.0
10060.0
10110.0
10200.0
10350.0
10590.0
10950.0
11380.0
11780.0
12020.0
12050.0
11950.0
11820.0
11500.0
11010.0
10690.0
10590.0
10730.0
11250.0
12320.0
13990.0
15640.0
16030.0
15340.0
14520.0
13600.0
12520.0
12140.0
12760.0
13700.0
13840.0
12930.0
11860.0
11230.0
10870.0
10630.0
10430.0
10270.0
10150.0
10100.0
10120.0
10320.0
10830.0
11700.0
12680.0
13000.0
12180.0
10950.0
10050.0
9593.0
9463.0
9570.0
9826.0
10020.0
10030.0
10240.0
10790.0
11410.0
11670.0
11390.0
10810.0
10020.0
10030.0
10030.0
10030.0
10030.0
10030.0
10030.0
10040.0
10060.0
10090.0
10160.0
10280.0
10430.0
10620.0
10790.0
10870.0
10860.0
10920.0
11100.0
11200.0
11000.0
10610.0
10350.0
10310.0
10540.0
11210.0
12500.0
14480.0
16260.0
16380.0
15210.0
14170.0
13390.0
12530.0
12280.0
13070.0
14370.0
15000.0
14220.0
12850.0
11750.0
11010.0
10570.0
10350.0
10240.0
10170.0
10130.0
10150.0
10300.0
10650.0
11320.0
12110.0
12390.0
11710.0
10740.0
10160.0
10020.0
10070.0
10130.0
10260.0
10480.0
10700.0
11100.0
11700.0
12190.0
12250.0
11720.0
10950.0
10020.0
10020.0
10030.0
10030.0
10030.0
10030.0
10030.0
10040.0
10060.0
10080.0
10120.0
10210.0
10280.0
10340.0
10310.0
10210.0
10140.0
10250.0
10540.0
10790.0
10710.0
10440.0
10240.0
10260.0
10510.0
11170.0
12380.0
14020.0
15270.0
14940.0
13660.0
12730.0
12290.0
11860.0
11840.0
12750.0
14450.0
15810.0
15530.0
13860.0
12150.0
11020.0
10460.0
10280.0
10250.0
10290.0
10340.0
10410.0
10480.0
10550.0
10780.0
11110.0
11210.0
10850.0
10380.0
10310.0
10660.0
11000.0
11020.0
10940.0
11110.0
11470.0
12010.0
12560.0
12870.0
12660.0
11910.0
11010.0
10020.0
10020.0
10030.0
10030.0
10030.0
10030.0
10030.0
10040.0
10050.0
10070.0
10100.0
10130.0
10130.0
10090.0
10010.0
9876.0
9844.0
10020.0
10350.0
10570.0
10530.0
10350.0
10200.0
10230.0
10440.0
10960.0
11800.0
12830.0
13400.0
12940.0
11940.0
11370.0
11230.0
11110.0
11220.0
12180.0
14140.0
16090.0
16240.0
14330.0
12240.0
10960.0
10420.0
10330.0
10430.0
10620.0
10870.0
11110.0
11200.0
11040.0
10730.0
10530.0
10350.0
10150.0
10040.0
10380.0
11200.0
11900.0
11960.0
11630.0
11530.0
11850.0
12370.0
12870.0
13010.0
12630.0
11820.0
10950.0
10020.0
10030.0
10030.0
10030.0
10030.0
10030.0
10040.0
10040.0
10050.0
10070.0
10080.0
10080.0
10020.0
9952.0
9862.0
9818.0
9896.0
10120.0
10370.0
10480.0
10410.0
10270.0
10170.0
10170.0
10320.0
10650.0
11150.0
11640.0
11790.0
11390.0
10880.0
10710.0
10830.0
10860.0
11050.0
11980.0
13840.0
15490.0
15240.0
13270.0
11430.0
10520.0
10290.0
10410.0
10730.0
11180.0
11760.0
12360.0
12650.0
12340.0
11510.0
10670.0
10090.0
9752.0
9691.0
10130.0
11150.0
12150.0
12420.0
11990.0
11610.0
11710.0
12130.0
12560.0
12650.0
12270.0
11570.0
10810.0
10020.0
10030.0
10030.0
10030.0
10040.0
10040.0
10040.0
10050.0
10060.0
10080.0
10060.0
10030.0
9971.0
9905.0
9877.0
9942.0
10090.0
10280.0
10400.0
10430.0
10330.0
10210.0
10120.0
10130.0
10240.0
10460.0
10750.0
10960.0
10950.0
10690.0
10500.0
10640.0
10950.0
11160.0
11520.0
12480.0
13870.0
14250.0
12890.0
11000.0
9930.0
9731.0
10010.0
10480.0
11070.0
11790.0
12720.0
13700.0
14240.0
13890.0
12640.0
11230.0
10200.0
9592.0
9377.0
9716.0
10690.0
11890.0
12510.0
12220.0
11690.0
11570.0
11800.0
12070.0
12120.0
11810.0
11230.0
10650.0
10020.0
10030.0
10040.0
10040.0
10040.0
10050.0
10060.0
10090.0
10110.0
10110.0
10090.0
10050.0
9991.0
9965.0
10020.0
10110.0
10240.0
10340.0
10360.0
10320.0
10220.0
10120.0
10080.0
10110.0
10220.0
10450.0
10720.0
10920.0
10850.0
10610.0
10500.0
10730.0
11200.0
11790.0
12700.0
14040.0
15030.0
13870.0
11230.0
9313.0
8758.0
9106.0
9802.0
10550.0
11270.0
12030.0
12940.0
13860.0
14460.0
14240.0
12990.0
11450.0
10230.0
9513.0
9222.0
9496.0
10430.0
11760.0
12750.0
12790.0
12230.0
11840.0
11760.0
11820.0
11730.0
11430.0
10960.0
10520.0
10020.0
10030.0
10040.0
10050.0
10050.0
10080.0
10100.0
10130.0
10180.0
10190.0
10180.0
10150.0
10150.0
10220.0
10360.0
10470.0
10420.0
10320.0
10230.0
10160.0
10100.0
10050.0
10020.0
10050.0
10180.0
10450.0
10810.0
11080.0
11090.0
10790.0
10640.0
10830.0
11500.0
12710.0
14600.0
16910.0
17840.0
15230.0
11340.0
9066.0
8561.0
9036.0
9836.0
10630.0
11320.0
11850.0
12260.0
12630.0
12850.0
12780.0
12040.0
10910.0
9962.0
9407.0
9223.0
9529.0
10390.0
11710.0
12960.0
13430.0
13020.0
12450.0
12050.0
11790.0
11530.0
11180.0
10790.0
10420.0
10030.0
10040.0
10050.0
10050.0
10060.0
10110.0
10140.0
10210.0
10290.0
10340.0
10380.0
10410.0
10580.0
10910.0
11260.0
11290.0
10930.0
10470.0
10180.0
10050.0
9997.0
9963.0
9934.0
9929.0
10010.0
10270.0
10660.0
11010.0
11060.0
10850.0
10720.0
11050.0
12090.0
14070.0
17120.0
20200.0
20720.0
16990.0
12360.0
9782.0
9106.0
9425.0
10080.0
10780.0
11390.0
11790.0
11850.0
11680.0
11470.0
11300.0
10880.0
10250.0
9684.0
9409.0
9435.0
9819.0
10560.0
11630.0
12840.0
13610.0
13530.0
12970.0
12350.0
11810.0
11400.0
11030.0
10650.0
10360.0
10030.0
10050.0
10060.0
10060.0
10090.0
10130.0
10200.0
10310.0
10450.0
10580.0
10680.0
10810.0
11210.0
11950.0
12800.0
12940.0
12140.0
11100.0
10400.0
10090.0
9958.0
9885.0
9803.0
9715.0
9696.0
9846.0
10170.0
10510.0
10650.0
10620.0
10750.0
11410.0
12930.0
15680.0
19400.0
22190.0
21450.0
17270.0
12970.0
10580.0
9826.0
9932.0
10350.0
10870.0
11490.0
12010.0
12090.0
11700.0
11070.0
10520.0
10140.0
9800.0
9562.0
9568.0
9839.0
10320.0
10890.0
11500.0
12360.0
13140.0
13330.0
12950.0
12310.0
11690.0
11220.0
10850.0
10540.0
10290.0
10040.0
10050.0
10060.0
10060.0
10090.0
10160.0
10270.0
10440.0
10700.0
10930.0
11090.0
11240.0
11740.0
12820.0
14270.0
14830.0
13720.0
12070.0
10900.0
10310.0
10030.0
9846.0
9685.0
9504.0
9379.0
9427.0
9683.0
10020.0
10300.0
10510.0
10880.0
11720.0
13380.0
16170.0
19560.0
21470.0
20050.0
16460.0
13130.0
11220.0
10520.0
10430.0
10620.0
10980.0
11650.0
12510.0
12940.0
12520.0
11430.0
10360.0
9812.0
9638.0
9622.0
9830.0
10300.0
10850.0
11220.0
11380.0
11760.0
12300.0
12560.0
12360.0
11870.0
11360.0
10950.0
10670.0
10410.0
10240.0
10040.0
10050.0
10070.0
10070.0
10110.0
10170.0
10340.0
10620.0
11050.0
11490.0
11780.0
11850.0
12210.0
13250.0
15170.0
16390.0
15350.0
13310.0
11700.0
10790.0
10260.0
9914.0
9667.0
9459.0
9329.0
9366.0
9612.0
9971.0
10410.0
10820.0
11250.0
11920.0
13030.0
14830.0
17020.0
18500.0
18040.0
15920.0
13590.0
12040.0
11310.0
11070.0
11050.0
11310.0
12030.0
13120.0
13820.0
13460.0
12030.0
10500.0
9879.0
9853.0
9956.0
10190.0
10660.0
11210.0
11470.0
11380.0
11410.0
11650.0
11800.0
11650.0
11310.0
10960.0
10670.0
10470.0
10300.0
10160.0
10050.0
10070.0
10100.0
10130.0
10160.0
10250.0
10450.0
10840.0
11490.0
12330.0
13010.0
13200.0
13350.0
14090.0
16200.0
18100.0
17390.0
15150.0
13140.0
11780.0
10800.0
10150.0
9829.0
9694.0
9713.0
9861.0
10120.0
10470.0
11030.0
11550.0
11950.0
12360.0
12870.0
13690.0
14950.0
16480.0
17230.0
16350.0
14600.0
13090.0
12200.0
11810.0
11720.0
11930.0
12550.0
13420.0
13920.0
13500.0
12090.0
10670.0
10320.0
10540.0
10660.0
10700.0
10950.0
11430.0
11800.0
11790.0
11680.0
11580.0
11430.0
11190.0
10880.0
10610.0
10440.0
10310.0
10200.0
10110.0
10080.0
10140.0
10230.0
10300.0
10370.0
10520.0
10790.0
11240.0
12080.0
13340.0
14780.0
15700.0
16070.0
16570.0
18650.0
20950.0
20460.0
18050.0
15490.0
13420.0
11730.0
10620.0
10140.0
10120.0
10380.0
10760.0
11070.0
11340.0
11850.0
12410.0
12800.0
13170.0
13400.0
13730.0
14550.0
16070.0
17300.0
16860.0
15270.0
13750.0
12770.0
12330.0
12350.0
12760.0
13380.0
13870.0
13710.0
12940.0
11710.0
10770.0
10960.0
11500.0
11580.0
11270.0
11160.0
11570.0
12310.0
12700.0
12560.0
12080.0
11500.0
11010.0
10640.0
10390.0
10270.0
10190.0
10140.0
10080.0
10150.0
10310.0
10500.0
10710.0
10980.0
11260.0
11610.0
12100.0
12810.0
14140.0
16150.0
18240.0
19770.0
20540.0
22270.0
24270.0
23940.0
21780.0
18810.0
15870.0
13200.0
11420.0
10630.0
10560.0
11030.0
11670.0
12110.0
12250.0
12490.0
12880.0
13310.0
13920.0
14370.0
14720.0
15410.0
16540.0
17120.0
16340.0
14900.0
13690.0
12880.0
12520.0
12870.0
13930.0
15300.0
16160.0
15670.0
14130.0
12300.0
11220.0
11520.0
12200.0
12260.0
11690.0
11280.0
11580.0
12550.0
13270.0
13190.0
12470.0
11590.0
10910.0
10490.0
10280.0
10170.0
10120.0
10080.0
10060.0
10280.0
10580.0
10990.0
11490.0
12090.0
12720.0
13310.0
13740.0
13980.0
14470.0
15830.0
18160.0
20750.0
22280.0
23720.0
25670.0
26920.0
26670.0
23960.0
19830.0
15710.0
12910.0
11500.0
11150.0
11710.0
12690.0
13250.0
13090.0
12800.0
12800.0
13320.0
14340.0
15230.0
15940.0
16700.0
17230.0
16730.0
15460.0
14370.0
13720.0
13200.0
12870.0
13380.0
15080.0
17480.0
19550.0
19720.0
17660.0
14600.0
12690.0
12550.0
13040.0
12970.0
12150.0
11390.0
11400.0
12170.0
12910.0
12900.0
12230.0
11400.0
10760.0
10380.0
10200.0
10120.0
10070.0
10050.0
10050.0
10400.0
10870.0
11530.0
12390.0
13380.0
14400.0
15270.0
15650.0
15280.0
14500.0
14340.0
15460.0
17460.0
19160.0
20830.0
23950.0
28650.0
32500.0
31090.0
25220.0
18990.0
14910.0
12720.0
12080.0
12810.0
14210.0
14880.0
14230.0
13230.0
12900.0
13630.0
15120.0
16350.0
17180.0
17890.0
17940.0
16830.0
15420.0
14680.0
14540.0
14180.0
13530.0
13560.0
14730.0
16780.0
19050.0
20300.0
19230.0
16410.0
14390.0
14090.0
14360.0
13990.0
12800.0
11620.0
11190.0
11520.0
11960.0
12030.0
11600.0
11000.0
10550.0
10260.0
10120.0
10060.0
10050.0
10040.0
10040.0
10450.0
10990.0
11740.0
12620.0
13560.0
14400.0
15060.0
15370.0
15030.0
13810.0
12780.0
12830.0
13820.0
14930.0
16390.0
19750.0
26050.0
32850.0
33550.0
27450.0
20390.0
15840.0
13500.0
12900.0
13920.0
15630.0
16190.0
14950.0
13330.0
12740.0
13680.0
15630.0
17080.0
17700.0
18140.0
18030.0
17030.0
15840.0
15250.0
15250.0
14920.0
13920.0
13210.0
13380.0
14230.0
15570.0
16880.0
17100.0
15930.0
14980.0
15080.0
15310.0
14670.0
13200.0
11780.0
11030.0
10980.0
11150.0
11180.0
10930.0
10610.0
10310.0
10150.0
10080.0
10040.0
10030.0
10020.0
10030.0
10390.0
10800.0
11320.0
11790.0
12060.0
12090.0
12090.0
12380.0
12720.0
12320.0
11580.0
11410.0
11850.0
12340.0
13060.0
15220.0
19750.0
25220.0
26820.0
23090.0
18110.0
14790.0
13100.0
12830.0
13880.0
15410.0
15690.0
14270.0
12590.0
11970.0
12870.0
14770.0
16230.0
16920.0
17460.0
17670.0
17120.0
16010.0
14980.0
14540.0
14040.0
13030.0
12190.0
11900.0
12040.0
12610.0
13460.0
14060.0
14080.0
14150.0
14640.0
14880.0
14250.0
12920.0
11630.0
10850.0
10620.0
10620.0
10610.0
10490.0
10320.0
10170.0
10080.0
10040.0
10020.0
10020.0
10020.0
10030.0
10250.0
10480.0
10690.0
10730.0
10490.0
10040.0
9753.0
10040.0
10790.0
11120.0
10930.0
10930.0
11270.0
11410.0
11510.0
12480.0
14910.0
17970.0
19120.0
17420.0
14810.0
12970.0
12080.0
12050.0
12850.0
13820.0
13840.0
12750.0
11480.0
10980.0
11560.0
12850.0
14060.0
15190.0
16410.0
17230.0
16950.0
15550.0
13990.0
13050.0
12430.0
11710.0
11110.0
10830.0
10810.0
11030.0
11490.0
11960.0
12310.0
12750.0
13280.0
13490.0
13080.0
12170.0
11260.0
10670.0
10400.0
10340.0
10320.0
10240.0
10160.0
10090.0
10040.0
10020.0
10010.0
10010.0
10010.0
10020.0
10120.0
10230.0
10260.0
10110.0
9740.0
9268.0
9015.0
9323.0
10110.0
10660.0
10750.0
10900.0
11260.0
11300.0
11150.0
11520.0
12810.0
14460.0
15000.0
14060.0
12630.0
11630.0
11170.0
11200.0
11660.0
12120.0
12070.0
11400.0
10640.0
10290.0
10560.0
11300.0
12270.0
13720.0
15520.0
16640.0
16170.0
14410.0
12720.0
11750.0
11210.0
10760.0
10440.0
10260.0
10250.0
10330.0
10560.0
10840.0
11160.0
11540.0
11910.0
12100.0
11860.0
11360.0
10840.0
10450.0
10270.0
10210.0
10170.0
10130.0
10090.0
10050.0
10020.0
10020.0
10010.0
10010.0
10010.0
10020.0
10060.0
10080.0
10050.0
9892.0
9613.0
9314.0
9226.0
9577.0
10270.0
10770.0
10860.0
10950.0
11200.0
11230.0
11110.0
11350.0
12290.0
13350.0
13440.0
12570.0
11540.0
10870.0
10590.0
10600.0
10790.0
11010.0
10930.0
10550.0
10160.0
9959.0
10080.0
10510.0
11380.0
12970.0
14980.0
16010.0
15130.0
13190.0
11670.0
10930.0
10560.0
10320.0
10130.0
10050.0
10040.0
10060.0
10170.0
10320.0
10530.0
10770.0
11020.0
11120.0
11020.0
10770.0
10500.0
10280.0
10200.0
10130.0
10100.0
10070.0
10040.0
10020.0
10010.0
10020.0
10010.0
10010.0
10020.0
10020.0
10020.0
10020.0
9977.0
9878.0
9739.0
9636.0
9724.0
10130.0
10710.0
11070.0
11000.0
10810.0
10810.0
10760.0
10730.0
11100.0
12000.0
12840.0
12650.0
11740.0
10890.0
10410.0
10220.0
10240.0
10330.0
10400.0
10330.0
10140.0
9935.0
9819.0
9857.0
10130.0
10830.0
12140.0
13800.0
14540.0
13680.0
12030.0
10900.0
10410.0
10230.0
10120.0
10040.0
9989.0
9977.0
9986.0
10030.0
10120.0
10230.0
10360.0
10490.0
10550.0
10520.0
10410.0
10290.0
10180.0
10120.0
10080.0
10070.0
10040.0
10030.0
10010.0
10010.0
10010.0
10020.0
10000.0
10010.0
10020.0
9998.0
9985.0
9960.0
9920.0
9891.0
9941.0
10170.0
10610.0
11130.0
11290.0
10980.0
10520.0
10240.0
10080.0
10100.0
10570.0
11460.0
12130.0
11790.0
10920.0
10290.0
10030.0
9994.0
10040.0
10090.0
10100.0
10060.0
9966.0
9850.0
9769.0
9776.0
9951.0
10420.0
11250.0
12270.0
12710.0
12110.0
11060.0
10360.0
10110.0
10060.0
10020.0
9992.0
9973.0
9963.0
9967.0
9989.0
10030.0
10080.0
10150.0
10230.0
10270.0
10260.0
10220.0
10170.0
10110.0
10070.0
10050.0
10040.0
10020.0
10020.0
10010.0
10010.0
10010.0
10020.0
10020.0
10020.0
10010.0
9988.0
9973.0
9961.0
9964.0
10020.0
10170.0
10500.0
10960.0
11320.0
11250.0
10750.0
10170.0
9792.0
9575.0
9615.0
10120.0
10960.0
11470.0
11070.0
10340.0
9909.0
9820.0
9874.0
9940.0
9983.0
9994.0
9969.0
9914.0
9850.0
9810.0
9842.0
9997.0
10290.0
10710.0
11160.0
11290.0
10950.0
10380.0
10050.0
9949.0
9952.0
9964.0
9964.0
9962.0
9962.0
9968.0
9982.0
10010.0
10030.0
10070.0
10100.0
10130.0
10130.0
10110.0
10080.0
10050.0
10030.0
10020.0
10020.0
10020.0
10010.0
10010.0
10010.0
10010.0
10020.0
10020.0
10020.0
10010.0
9979.0
9966.0
9967.0
10000.0
10110.0
10350.0
10700.0
11100.0
11220.0
10840.0
10240.0
9776.0
9533.0
9383.0
9451.0
9974.0
10760.0
11160.0
10780.0
10170.0
9845.0
9804.0
9864.0
9922.0
9951.0
9960.0
9948.0
9921.0
9893.0
9885.0
9939.0
10070.0
10240.0
10360.0
10450.0
10440.0
10280.0
10060.0
9916.0
9892.0
9913.0
9935.0
9949.0
9959.0
9966.0
9973.0
9985.0
9999.0
10010.0
10030.0
10040.0
10060.0
10060.0
10040.0
10040.0
10030.0
10020.0
10010.0
10010.0
10010.0
10010.0
10010.0
10010.0
10010.0
10010.0
10010.0
10010.0
10010.0
9974.0
9963.0
9966.0
10010.0
10140.0
10330.0
10620.0
10820.0
10620.0
10010.0
9460.0
9255.0
9341.0
9419.0
9590.0
10120.0
10820.0
11110.0
10790.0
10270.0
9978.0
9905.0
9919.0
9941.0
9955.0
9959.0
9955.0
9946.0
9935.0
9939.0
9977.0
10050.0
10090.0
10060.0
10030.0
10070.0
10080.0
10030.0
9979.0
9950.0
9943.0
9948.0
9955.0
9966.0
9972.0
9979.0
9988.0
9997.0
9999.0
10010.0
10010.0
10020.0
10020.0
10020.0
10010.0
10010.0
10010.0
10010.0
10010.0
10000.0
10000.0
10000.0
10010.0
10010.0
10010.0
10010.0
10010.0
10010.0
9974.0
9956.0
9949.0
9973.0
10040.0
10150.0
10250.0
10190.0
9794.0
9170.0
8787.0
8873.0
9325.0
9718.0
10030.0
10510.0
11020.0
11170.0
10860.0
10430.0
10140.0
10020.0
9985.0
9972.0
9970.0
9969.0
9969.0
9968.0
9966.0
9967.0
9979.0
9991.0
9974.0
9932.0
9970.0
10110.0
10240.0
10270.0
10200.0
10090.0
10030.0
9986.0
9976.0
9978.0
9980.0
9985.0
9991.0
9997.0
9999.0
10000.0
10010.0
10010.0
10010.0
10010.0
10010.0
10010.0
10010.0
10010.0
10000.0
10000.0
9999.0
9999.0
10010.0
10010.0
10010.0
10010.0
10010.0
10010.0
9970.0
9948.0
9930.0
9921.0
9925.0
9917.0
9840.0
9599.0
9145.0
8647.0
8458.0
8769.0
9517.0
10200.0
10610.0
10940.0
11180.0
11160.0
10860.0
10500.0
10240.0
10100.0
10030.0
9998.0
9985.0
9982.0
9983.0
9985.0
9987.0
9990.0
9991.0
9994.0
9991.0
10020.0
10140.0
10370.0
10540.0
10530.0
10390.0
10220.0
10110.0
10040.0
10010.0
9990.0
9988.0
9991.0
9994.0
9997.0
9999.0
9999.0
10010.0
10010.0
10010.0
10010.0
10010.0
10010.0
10000.0
10000.0
10000.0
9998.0
9998.0
9997.0
9998.0
10010.0
10010.0
10010.0
10010.0
10010.0
9973.0
9951.0
9925.0
9899.0
9862.0
9786.0
9624.0
9329.0
8917.0
8535.0
8444.0
8835.0
9715.0
10540.0
10980.0
11140.0
11170.0
11020.0
10750.0
10480.0
10250.0
10130.0
10050.0
10020.0
9996.0
9992.0
9991.0
9996.0
10000.0
10000.0
10010.0
10040.0
10070.0
10160.0
10340.0
10540.0
10660.0
10630.0
10460.0
10280.0
10140.0
10060.0
10020.0
10010.0
9994.0
9994.0
9995.0
10010.0
10010.0
10010.0
10010.0
10010.0
10010.0
10010.0
10010.0
10010.0
10000.0
10000.0
9999.0
9997.0
9997.0
9997.0
9998.0
10010.0
10010.0
10010.0
10010.0
10010.0
9983.0
9966.0
9947.0
9925.0
9885.0
9810.0
9665.0
9428.0
9115.0
8820.0
8732.0
9062.0
9870.0
10660.0
11050.0
11120.0
11000.0
10820.0
10590.0
10380.0
10210.0
10120.0
10050.0
10020.0
10000.0
9995.0
9995.0
9999.0
10000.0
10020.0
10030.0
10070.0
10130.0
10250.0
10400.0
10560.0
10630.0
10560.0
10400.0
10250.0
10140.0
10060.0
10030.0
10020.0
10010.0
10010.0
10010.0
10010.0
10010.0
10010.0
10010.0
10010.0
10010.0
10010.0
10010.0
10010.0
10010.0
9998.0
9998.0
9998.0
9998.0
9998.0
10010.0
10010.0
10010.0
10010.0
10010.0
10010.0
10010.0
10010.0
9991.0
9986.0
9970.0
9934.0
9862.0
9738.0
9560.0
9364.0
9271.0
9485.0
10070.0
10660.0
10940.0
10940.0
10770.0
10600.0
10430.0
10290.0
10160.0
10090.0
10040.0
10010.0
9999.0
9995.0
9994.0
9998.0
10000.0
10010.0
10030.0
10070.0
10150.0
10230.0
10350.0
10460.0
10480.0
10430.0
10320.0
10200.0
10110.0
10060.0
10040.0
10020.0
10020.0
10010.0
10010.0
10010.0
10010.0
10010.0
10010.0
10010.0
10010.0
10010.0
10010.0
10010.0
10010.0
10010.0
10010.0
10010.0
10010.0
10010.0
10010.0
10010.0
10010.0
10010.0
10010.0
10010.0
10030.0
10030.0
10050.0
10050.0
10060.0
10080.0
10070.0
10070.0
10010.0
9927.0
9855.0
9946.0
10290.0
10640.0
10780.0
10720.0
10590.0
10430.0
10310.0
10200.0
10120.0
10070.0
10030.0
10000.0
9997.0
9992.0
9993.0
9996.0
9999.0
10000.0
10040.0
10060.0
10110.0
10190.0
10260.0
10310.0
10330.0
10290.0
10210.0
10150.0
10090.0
10060.0
10050.0
10020.0
10010.0
10010.0
10010.0
10010.0
10010.0
10010.0
10010.0
10010.0
10010.0
10010.0
10010.0
10010.0
10010.0
10010.0
10010.0
10010.0
10010.0
10010.0
10010.0
10010.0
10010.0
10010.0
10010.0
10010.0
10040.0
10070.0
10090.0
10110.0
10130.0
10160.0
10200.0
10240.0
10280.0
10260.0
10250.0
10270.0
10420.0
10560.0
10600.0
10520.0
10400.0
10290.0
10210.0
10140.0
10080.0
10040.0
10030.0
10000.0
9994.0
9990.0
9989.0
9991.0
9995.0
10000.0
10010.0
10040.0
10080.0
10120.0
10170.0
10190.0
10190.0
10170.0
10140.0
10110.0
10080.0
10060.0
10040.0
10010.0
9995.0
9996.0
10010.0
10010.0
10010.0
10010.0
10010.0
10010.0
10010.0
10010.0
10010.0
10010.0
10010.0
10010.0
10010.0
10010.0
10010.0
10010.0
10010.0
10010.0
10010.0
10010.0
10010.0
10010.0
10050.0
10080.0
10100.0
10120.0
10150.0
10160.0
10210.0
10260.0
10300.0
10330.0
10340.0
10340.0
10370.0
10410.0
10400.0
10330.0
10250.0
10170.0
10120.0
10090.0
10050.0
10030.0
10000.0
9998.0
9992.0
9989.0
9989.0
9990.0
9992.0
9999.0
10010.0
10020.0
10040.0
10070.0
10100.0
10110.0
10110.0
10100.0
10090.0
10070.0
10060.0
10050.0
10030.0
10010.0
9996.0
10010.0
10020.0
10010.0
10010.0
10010.0
10010.0
10010.0
10010.0
10010.0
10010.0
10010.0
10010.0
10010.0
10010.0
10010.0
10010.0
10010.0
10010.0
10010.0
10010.0
10010.0
10010.0
10010.0
10030.0
10050.0
10080.0
10090.0
10100.0
10120.0
10140.0
10170.0
10230.0
10260.0
10260.0
10250.0
10250.0
10250.0
10220.0
10170.0
10140.0
10100.0
10050.0
10040.0
10020.0
10000.0
10000.0
9997.0
9994.0
9992.0
9992.0
9992.0
9993.0
9996.0
10010.0
10020.0
10020.0
10030.0
10040.0
10050.0
10050.0
10040.0
10040.0
10050.0
10040.0
10040.0
10030.0
10030.0
10020.0
10020.0
10020.0
10010.0
10010.0
10010.0
10010.0
10010.0
10010.0
10010.0
10010.0
10010.0
10010.0
10010.0
10010.0
9998.0
9997.0
9998.0
9998.0
10010.0
10010.0
10010.0
10010.0
9998.0
10000.0
10000.0
10000.0
10000.0
10000.0
10000.0
10000.0
10000.0
10000.0
10000.0
10000.0
10000.0
10000.0
10000.0
10000.0
10000.0
9999.0
9997.0
9990.0
9983.0
9972.0
9965.0
9976.0
10020.0
10070.0
10130.0
10130.0
10100.0
10060.0
10020.0
10010.0
10000.0
9997.0
9993.0
9993.0
9993.0
9994.0
9994.0
9992.0
9991.0
9991.0
9992.0
9994.0
9997.0
9999.0
9999.0
9999.0
9999.0
10000.0
10010.0
10010.0
10010.0
10020.0
10020.0
10020.0
10030.0
10030.0
10040.0
10040.0
10040.0
10040.0
10030.0
10030.0
10040.0
10040.0
10040.0
10040.0
10030.0
10000.0
10010.0
10010.0
10000.0
10000.0
10000.0
10000.0
10000.0
10000.0
10000.0
10000.0
10010.0
10010.0
10010.0
10010.0
9999.0
9999.0
9992.0
9982.0
9964.0
9938.0
9920.0
9939.0
10030.0
10180.0
10270.0
10270.0
10210.0
10130.0
10070.0
10020.0
10010.0
9997.0
9991.0
9990.0
9990.0
9989.0
9988.0
9986.0
9985.0
9985.0
9988.0
9992.0
9996.0
9998.0
9998.0
9998.0
10010.0
10010.0
10010.0
10010.0
10020.0
10020.0
10030.0
10040.0
10050.0
10060.0
10070.0
10070.0
10070.0
10060.0
10050.0
10050.0
10060.0
10060.0
10070.0
10060.0
10040.0
10000.0
10010.0
10010.0
10010.0
10000.0
10000.0
10000.0
10000.0
10000.0
10000.0
10010.0
10010.0
10010.0
10010.0
10010.0
10010.0
9999.0
9989.0
9970.0
9937.0
9887.0
9846.0
9879.0
10050.0
10310.0
10530.0
10520.0
10390.0
10240.0
10110.0
10040.0
10010.0
10000.0
9992.0
9989.0
9988.0
9986.0
9985.0
9982.0
9980.0
9981.0
9984.0
9989.0
9994.0
9997.0
9998.0
9998.0
10010.0
10010.0
10010.0
10010.0
10020.0
10030.0
10040.0
10060.0
10080.0
10090.0
10090.0
10100.0
10100.0
10090.0
10070.0
10070.0
10070.0
10080.0
10090.0
10070.0
10050.0
10000.0
10010.0
10010.0
10010.0
10000.0
10000.0
10000.0
10000.0
10000.0
10000.0
10010.0
10010.0
10010.0
10010.0
10010.0
10010.0
9999.0
9985.0
9956.0
9905.0
9829.0
9771.0
9829.0
10110.0
10530.0
10810.0
10800.0
10570.0
10340.0
10180.0
10070.0
10020.0
10000.0
9994.0
9990.0
9989.0
9987.0
9983.0
9980.0
9977.0
9978.0
9983.0
9989.0
9994.0
9997.0
9997.0
9998.0
9998.0
10010.0
10010.0
10010.0
10020.0
10040.0
10050.0
10080.0
10100.0
10120.0
10130.0
10140.0
10130.0
10110.0