# vtk DataFile Version 4.1
vtk output
ASCII
DATASET RECTILINEAR_GRID
DIMENSIONS 79 62 81
X_COORDINATES 79 float
355868 375118 388868 397118 403118 409618 415368 420368 424743 
428493 432243 435993 440118 444618 448118 450618 453118 455118 
456368 457910 459995 461538 463136 465333 467493 469474 471312 
473147 474980 476758 478480 480147 481759 483504 485383 487247 
489096 490777 492289 494034 495629 497227 499209 501385 503755 
505440 506920 508880 510933 513176 514847 516347 518228 519991 
521754 523517 525576 527931 530109 531609 532609 533859 535859 
538359 540859 544359 548859 552984 556734 560484 564234 568609 
573609 579359 585859 591859 600109 613859 633109 
METADATA
INFORMATION 0

Y_COORDINATES 62 float
7.5841e+006 7.60335e+006 7.6171e+006 7.62535e+006 7.6306e+006 7.6356e+006 7.63985e+006 7.64335e+006 7.64635e+006 
7.64885e+006 7.65135e+006 7.65385e+006 7.65585e+006 7.65735e+006 7.65885e+006 7.66035e+006 7.66185e+006 7.66335e+006 
7.66485e+006 7.66595e+006 7.66665e+006 7.66735e+006 7.6684e+006 7.67015e+006 7.67216e+006 7.67406e+006 7.67615e+006 
7.6784e+006 7.68058e+006 7.68233e+006 7.68338e+006 7.6845e+006 7.68604e+006 7.68714e+006 7.68846e+006 7.69044e+006 
7.69177e+006 7.69298e+006 7.6947e+006 7.69591e+006 7.69697e+006 7.69895e+006 7.70058e+006 7.7019e+006 7.70373e+006 
7.70478e+006 7.70564e+006 7.7072e+006 7.70859e+006 7.70941e+006 7.71051e+006 7.71276e+006 7.71576e+006 7.71876e+006 
7.72276e+006 7.72776e+006 7.73376e+006 7.74226e+006 7.75001e+006 7.75826e+006 7.77201e+006 7.79126e+006 
METADATA
INFORMATION 0

Z_COORDINATES 81 float
-5 -10.644 -12.015 -13.563 -15.3105 -17.283 -19.51 -22.024 -24.8615 
-28.0645 -31.6805 -35.7625 -40.37 -45.571 -51.4425 -58.0705 -65.552 -73.9975 
-83.531 -94.291 -106.436 -120.146 -135.626 -153.101 -172.826 -195.096 -220.236 
-248.611 -280.641 -316.801 -357.621 -403.696 -455.706 -514.421 -580.701 -655.516 
-739.971 -835.306 -942.906 -1057.91 -1180.51 -1317.31 -1469.96 -1640.31 -1830.41 
-2042.51 -2279.21 -2543.36 -2838.11 -3167.01 -3534.01 -3943.56 -4400.56 -4910.51 
-5479.56 -6114.56 -6823.16 -7613.86 -8496.16 -9480.46 -10579 -11805 -13173 
-14699.5 -16403 -18304 -20425 -22792 -25433.5 -28381 -31670 -35340 
-39435.5 -44005.5 -49105 -54795.5 -61145.5 -68231.5 -76138.5 -84961.5 -94804.5 

METADATA
INFORMATION 0

POINT_DATA 396738
SCALARS Resistivity float
LOOKUP_TABLE default
1999 1999 1999 1998 1998 1998 1998 1998 1998 
1998 1998 1998 1998 1998 1998 1998 1998 1999 
1999 1999 1999 1998 1998 1998 1998 1998 1998 
1998 1998 1998 1998 1998 1998 1998 1997 1997 
1997 1998 1998 1998 1998 1998 1997 1998 1998 
1998 1998 1998 1998 1999 1999 1999 1999 1999 
1999 1999 1999 1999 2000 2000 2000 2000 2000 
2000 2000 2000 2000 2000 2000 2000 2000 2000 
2000 2000 2000 2000 2000 2000 2000 1999 1998 
1998 1997 1997 1997 1996 1996 1996 1996 1996 
1996 1995 1996 1996 1996 1997 1997 1997 1997 
1997 1997 1997 1996 1996 1996 1996 1996 1996 
1996 1996 1995 1995 1995 1995 1995 1995 1995 
1995 1995 1995 1995 1995 1996 1996 1997 1997 
1997 1998 1998 1998 1998 1998 1999 1999 1999 
1999 1999 1999 2000 2000 2000 2000 2000 2000 
2000 2001 2001 2001 2001 2001 2001 2001 2000 
2000 2000 2000 2000 2000 1999 1998 1998 1997 
1996 1996 1996 1995 1995 1995 1994 1994 1993 
1994 1994 1995 1995 1996 1996 1996 1995 1995 
1994 1994 1993 1993 1993 1993 1993 1993 1993 
1993 1992 1992 1992 1993 1993 1993 1993 1994 
1994 1994 1994 1994 1995 1996 1997 1997 1998 
1998 1998 1998 1998 1999 1999 1999 1999 2000 
2000 2000 2000 2000 2000 2000 2001 2001 2001 
2001 2001 2001 2001 2001 2001 2001 2001 2000 
2000 2000 2000 2000 1999 1998 1997 1997 1996 
1995 1995 1994 1994 1993 1992 1991 1991 1992 
1992 1993 1994 1994 1994 1993 1993 1992 1991 
1990 1990 1990 1989 1989 1989 1989 1989 1989 
1989 1989 1990 1991 1991 1991 1992 1992 1992 
1992 1992 1993 1995 1997 1998 1998 1998 1998 
1999 1999 1999 2000 2000 2000 2000 2000 2000 
2000 2000 2000 2001 2001 2001 2001 2001 2001 
2001 2001 2001 2001 2001 2001 2001 2001 2000 
2000 2000 2000 1999 1998 1997 1996 1995 1994 
1994 1993 1992 1990 1989 1989 1990 1990 1991 
1992 1992 1992 1991 1990 1989 1987 1986 1985 
1985 1984 1984 1984 1983 1983 1984 1985 1987 
1990 1991 1991 1990 1989 1989 1989 1990 1990 
1992 1995 1997 1999 1999 2000 2000 2000 2000 
2000 2000 2001 2001 2001 2001 2000 2000 2001 
2001 2001 2001 2001 2001 2001 2001 2001 2001 
2001 2001 2001 2001 2001 2001 2000 2000 2000 
2000 2000 1999 1997 1996 1995 1994 1993 1992 
1990 1989 1987 1987 1988 1989 1990 1991 1991 
1991 1990 1988 1986 1984 1982 1981 1979 1978 
1977 1976 1976 1976 1977 1981 1989 1996 1998 
1995 1991 1988 1987 1987 1988 1989 1991 1995 
1998 2000 2002 2002 2002 2002 2002 2002 2002 
2002 2002 2001 2001 2001 2001 2001 2001 2001 
2001 2001 2001 2001 2001 2001 2001 2001 2001 
2001 2001 2001 2001 2001 2000 2001 2001 2000 
1999 1998 1997 1996 1994 1993 1991 1989 1987 
1986 1986 1987 1988 1990 1991 1991 1991 1989 
1987 1985 1981 1978 1976 1973 1971 1968 1966 
1964 1965 1969 1980 2002 2024 2028 2015 1999 
1989 1984 1984 1985 1988 1992 1996 2000 2003 
2004 2004 2004 2004 2004 2003 2003 2003 2003 
2002 2002 2001 2001 2001 2001 2001 2001 2001 
2000 2000 2000 2000 2000 2000 2001 2001 2001 
2001 2001 2001 2000 2001 2001 2001 2000 1999 
1997 1996 1995 1993 1991 1989 1987 1985 1985 
1986 1988 1991 1992 1993 1992 1991 1989 1985 
1981 1976 1972 1968 1962 1955 1947 1942 1945 
1955 1983 2043 2101 2110 2071 2024 1995 1983 
1981 1984 1988 1993 1998 2003 2006 2008 2008 
2007 2007 2006 2005 2005 2004 2003 2003 2002 
2001 2001 2001 2001 2000 2000 2000 2000 2000 
2000 2000 2000 2000 2000 2000 2000 2000 2000 
2000 2000 2001 2001 2001 2000 1999 1998 1996 
1995 1993 1991 1989 1986 1984 1984 1986 1989 
1993 1995 1996 1996 1995 1993 1989 1983 1976 
1969 1961 1950 1929 1904 1889 1899 1923 1983 
2127 2274 2298 2197 2081 2011 1983 1979 1983 
1990 1997 2003 2007 2010 2012 2011 2010 2009 
2008 2007 2006 2005 2004 2003 2002 2001 2001 
2001 2000 2000 2000 2000 2000 2000 2000 2000 
2000 2000 2000 2000 2000 2000 2000 2000 2000 
2001 2001 2001 2000 1999 1998 1997 1995 1993 
1991 1988 1986 1984 1984 1986 1991 1996 2000 
2002 2002 2002 2001 1997 1989 1977 1967 1954 
1925 1868 1794 1755 1789 1842 1946 2243 2583 
2650 2425 2180 2039 1987 1978 1985 1995 2003 
2009 2013 2015 2016 2015 2013 2011 2009 2008 
2007 2005 2004 2003 2002 2001 2001 2000 2000 
2000 2000 2000 1999 1999 1999 1999 2000 2000 
2000 2000 2000 2000 2000 2000 2000 2001 2001 
2001 2000 1999 1998 1997 1996 1994 1992 1989 
1986 1983 1984 1988 1995 2004 2010 2013 2013 
2013 2014 2012 2001 1983 1967 1942 1873 1722 
1532 1442 1538 1660 1799 2297 2962 3135 2726 
2299 2072 1993 1982 1991 2003 2011 2016 2018 
2019 2019 2017 2015 2012 2010 2008 2007 2005 
2004 2003 2002 2001 2001 2000 2000 2000 2000 
1999 1999 1999 1999 1999 1999 1999 2000 2000 
2000 2000 2000 2000 2000 2001 2001 2001 2000 
1999 1998 1997 1996 1995 1992 1989 1986 1984 
1985 1991 2004 2020 2031 2034 2031 2032 2038 
2041 2027 1999 1974 1928 1765 1418 1038 886.1 
1081 1349 1497 2126 3121 3476 2936 2370 2086 
1997 1989 2003 2015 2021 2023 2023 2022 2021 
2018 2015 2012 2010 2008 2006 2005 2003 2002 
2001 2001 2000 2000 2000 2000 1999 1999 1999 
1999 1999 1999 1999 1999 1999 2000 2000 2000 
2000 2000 2000 2001 2001 2000 2000 1999 1999 
1998 1997 1995 1993 1990 1986 1984 1987 1999 
2023 2052 2073 2074 2062 2060 2076 2092 2077 
2036 2006 1928 1589 957.4 453 306.9 512.7 954.8 
1158 1793 2901 3418 2932 2370 2088 2006 2005 
2019 2028 2030 2028 2026 2024 2021 2018 2015 
2012 2009 2007 2005 2004 2003 2002 2001 2000 
2000 2000 1999 1999 1999 1999 1999 1999 1999 
1999 1999 1999 1999 2000 2000 2000 2000 2000 
2000 2000 2001 2000 2000 1999 1999 1998 1997 
1995 1993 1989 1985 1983 1990 2012 2055 2111 
2148 2141 2106 2093 2125 2173 2168 2118 2107 
2008 1414 518.8 109.3 44.89 126.3 550.3 938.6 1655 
2818 3415 3006 2456 2150 2050 2039 2044 2043 
2037 2031 2026 2024 2021 2018 2015 2011 2009 
2007 2005 2003 2002 2001 2000 2000 2000 1999 
1999 1999 1999 1999 1999 1999 1999 1999 1999 
1999 1999 1999 2000 2000 2000 2000 2000 2000 
2000 2000 2000 1999 1999 1998 1997 1995 1993 
1989 1985 1983 1994 2030 2101 2194 2254 2226 
2141 2102 2157 2268 2308 2287 2375 2359 1451 
291.7 19.68 3.187 13.58 191.7 693.2 1693 3152 3857 
3386 2712 2288 2131 2091 2074 2056 2038 2027 
2022 2020 2019 2017 2014 2011 2008 2006 2004 
2003 2001 2001 2000 2000 1999 1999 1999 1999 
1999 1999 1999 1999 1999 1999 1999 1999 1999 
1999 1999 2000 2000 2000 2000 2000 2000 2000 
2000 1999 1999 1998 1997 1995 1993 1989 1984 
1983 1997 2044 2140 2268 2348 2283 2121 2036 
2111 2321 2473 2580 2968 3408 2230 328.6 8.455 
0.3888 1.104 29.75 249.1 1019 2378 3224 3086 2654 
2304 2187 2156 2116 2069 2031 2011 2007 2010 
2013 2013 2012 2010 2007 2005 2003 2002 2001 
2000 1999 1999 1999 1999 1999 1999 1999 1999 
1999 1999 1999 1999 1999 1999 1999 1999 1999 
1999 2000 2000 2000 2000 2000 2000 2000 1999 
1999 1998 1997 1996 1993 1989 1983 1980 1990 
2031 2122 2253 2333 2238 2009 1871 1944 2246 
2575 2952 3937 5728 5442 1242 35.04 0.7196 0.5013 
6.287 63.45 379.1 1181 2014 2441 2546 2421 2391 
2341 2225 2102 2016 1979 1976 1988 2000 2007 
2008 2008 2006 2004 2002 2001 1999 1999 1999 
1998 1998 1998 1998 1998 1998 1999 1999 1999 
1999 1999 1999 1999 1999 1999 1999 1999 1999 
2000 2000 2000 2000 2000 2000 1999 1999 1998 
1997 1996 1994 1989 1983 1974 1967 1976 2018 
2099 2167 2100 1871 1697 1725 2038 2490 3144 
4707 8178 12130 7266 741.8 24.73 4.986 11.93 55.76 
267.6 861.6 1743 2630 3169 3100 2996 2756 2430 
2159 1988 1919 1921 1951 1979 1996 2003 2005 
2004 2002 2000 1999 1998 1998 1998 1998 1998 
1998 1998 1998 1998 1998 1998 1999 1999 1999 
1999 1999 1999 1999 1999 1999 1999 2000 2000 
2000 2000 2000 2000 1999 1999 1998 1998 1997 
1995 1992 1985 1971 1949 1920 1904 1933 2017 
2053 1898 1691 1626 1839 2245 2918 4391 7527 
12840 14370 5199 558.3 92.77 73.23 143.2 401.2 1001 
1923 2996 3702 3657 3507 3081 2574 2176 1921 
1822 1838 1897 1950 1982 1996 2001 2001 2000 
1998 1997 1996 1996 1996 1997 1997 1997 1997 
1997 1998 1998 1998 1998 1999 1999 1999 1999 
1999 1999 1999 1999 1999 1999 2000 2000 2000 
2000 2000 1999 1999 1999 1998 1998 1998 1997 
1995 1987 1969 1940 1921 1967 2126 2305 2234 
1954 1743 1798 2051 2528 3460 5109 7703 9839 
7019 2148 592.8 359.3 433.4 751.1 1325 2082 2891 
3399 3414 3336 2955 2513 2126 1837 1725 1758 
1847 1924 1970 1990 1997 1999 1998 1996 1995 
1994 1994 1995 1996 1996 1997 1997 1997 1997 
1998 1998 1998 1998 1999 1999 1999 1999 1999 
1999 1999 1999 1999 2000 2000 2000 2000 2000 
1999 1999 1999 1999 1999 2001 2004 2009 2015 
2019 2020 2040 2131 2354 2621 2607 2275 1952 
1868 1972 2238 2714 3403 4290 5060 4612 2691 
1332 925.5 946.5 1220 1637 2102 2538 2796 2830 
2808 2603 2386 2120 1847 1735 1773 1863 1936 
1975 1992 1997 1997 1996 1994 1993 1993 1993 
1994 1995 1996 1996 1996 1997 1997 1997 1998 
1998 1998 1998 1999 1999 1999 1999 1999 1999 
1999 1999 2000 2000 2000 2000 2000 2000 1999 
1999 2000 2001 2003 2009 2020 2039 2065 2099 
2154 2265 2469 2692 2683 2393 2082 1945 1959 
2083 2303 2575 2865 3088 3004 2412 1756 1458 
1447 1609 1836 2063 2253 2356 2372 2373 2325 
2320 2227 2051 1980 1996 2019 2022 2016 2010 
2005 2000 1996 1993 1992 1991 1992 1993 1994 
1995 1996 1996 1996 1997 1997 1998 1998 1998 
1998 1998 1998 1998 1998 1999 1999 1999 1999 
2000 2000 2000 2000 2000 2000 2000 2000 2000 
2001 2005 2012 2026 2051 2088 2138 2203 2296 
2426 2544 2516 2318 2099 1982 1965 2016 2111 
2219 2316 2376 2347 2159 1907 1767 1758 1834 
1936 2030 2098 2126 2119 2115 2131 2227 2297 
2324 2385 2371 2263 2149 2078 2042 2022 2009 
1999 1994 1991 1990 1991 1992 1994 1995 1995 
1996 1996 1997 1997 1997 1998 1998 1998 1998 
1998 1998 1998 1998 1999 1999 1999 2000 2000 
2000 2000 2000 2000 2000 2000 2000 2002 2006 
2013 2027 2052 2088 2136 2192 2252 2313 2351 
2313 2193 2064 1989 1970 1990 2031 2075 2108 
2122 2106 2042 1955 1904 1904 1938 1980 2014 
2031 2026 1999 1970 1961 2017 2112 2271 2466 
2478 2331 2189 2112 2077 2050 2026 2007 1996 
1991 1989 1989 1991 1993 1994 1995 1995 1996 
1996 1997 1997 1998 1998 1998 1998 1998 1998 
1998 1998 1999 1999 1999 2000 2000 2000 2000 
2000 2000 2000 2000 2001 2002 2006 2012 2025 
2045 2074 2111 2149 2181 2201 2201 2166 2098 
2028 1986 1973 1982 2001 2020 2032 2034 2024 
2002 1974 1959 1964 1980 1998 2009 2009 1992 
1959 1915 1874 1868 1914 2055 2239 2277 2204 
2144 2132 2127 2098 2057 2022 2001 1991 1988 
1988 1990 1992 1994 1995 1995 1996 1996 1997 
1997 1998 1998 1998 1998 1998 1998 1998 1998 
1998 1999 1999 2000 2000 2000 2000 2000 2000 
2000 2000 2001 2002 2005 2011 2021 2036 2056 
2080 2101 2115 2117 2105 2079 2041 2005 1983 
1976 1981 1990 2000 2005 2004 2000 1992 1984 
1982 1987 1997 2005 2009 2004 1988 1959 1918 
1872 1839 1849 1938 2070 2131 2141 2162 2202 
2213 2166 2096 2040 2007 1992 1987 1987 1989 
1992 1993 1994 1995 1995 1996 1996 1997 1997 
1998 1998 1998 1998 1998 1998 1998 1998 1999 
1999 1999 2000 2000 2000 2000 2000 2000 2000 
2001 2003 2005 2010 2017 2028 2040 2054 2064 
2068 2063 2051 2033 2012 1994 1982 1979 1981 
1987 1992 1995 1995 1993 1991 1990 1992 1997 
2003 2009 2010 2005 1993 1973 1944 1911 1888 
1903 1986 2120 2220 2267 2282 2294 2274 2197 
2107 2042 2006 1990 1986 1986 1989 1991 1993 
1994 1995 1995 1996 1996 1997 1997 1997 1997 
1997 1997 1997 1998 1998 1998 1998 1999 1999 
2000 2000 2000 2000 2000 2000 2001 2001 2002 
2005 2008 2014 2021 2029 2035 2039 2038 2032 
2023 2011 1999 1989 1983 1981 1982 1986 1989 
1991 1992 1992 1993 1994 1997 2001 2006 2009 
2010 2006 1998 1985 1968 1951 1945 1972 2057 
2188 2296 2326 2282 2227 2171 2097 2036 2002 
1987 1983 1983 1986 1988 1991 1993 1994 1995 
1995 1996 1996 1997 1997 1997 1997 1997 1997 
1997 1997 1998 1998 1998 1999 1999 2000 2000 
2000 2000 2000 2000 2001 2001 2002 2004 2007 
2011 2015 2020 2023 2023 2021 2015 2008 2001 
1993 1988 1984 1982 1983 1986 1988 1990 1992 
1993 1994 1996 1999 2003 2006 2009 2009 2006 
2001 1993 1983 1976 1978 2007 2078 2187 2280 
2294 2211 2092 1989 1922 1912 1935 1959 1974 
1981 1986 1989 1992 1994 1994 1995 1995 1996 
1996 1996 1997 1997 1997 1997 1997 1997 1997 
1997 1998 1998 1999 1999 2000 2000 2000 2000 
2000 2000 2001 2001 2002 2004 2006 2008 2011 
2014 2015 2014 2011 2007 2001 1996 1991 1987 
1985 1983 1984 1986 1988 1990 1992 1994 1996 
1998 2001 2004 2006 2008 2008 2006 2002 1997 
1991 1988 1993 2017 2075 2170 2275 2332 2279 
2125 1952 1844 1846 1901 1950 1975 1985 1988 
1991 1993 1994 1995 1995 1996 1996 1996 1996 
1996 1997 1997 1997 1997 1997 1997 1997 1998 
1998 1999 1999 2000 2000 2000 2000 2000 2000 
2001 2001 2002 2003 2005 2007 2009 2010 2010 
2008 2005 2002 1998 1994 1990 1987 1985 1983 
1984 1985 1987 1990 1992 1994 1996 1999 2001 
2004 2005 2007 2006 2005 2002 1999 1995 1993 
1997 2015 2059 2139 2247 2338 2332 2185 1979 
1844 1851 1919 1972 1992 1995 1994 1994 1994 
1995 1995 1996 1996 1996 1996 1996 1996 1996 
1996 1996 1996 1997 1997 1997 1998 1998 1999 
1999 2000 2000 2000 2000 2000 2000 2001 2001 
2002 2003 2004 2005 2007 2007 2007 2005 2002 
1999 1995 1992 1989 1986 1984 1982 1982 1984 
1986 1988 1991 1994 1996 1999 2001 2003 2005 
2005 2005 2004 2002 1999 1997 1995 1997 2009 
2038 2094 2176 2255 2262 2146 1967 1853 1881 
1960 2007 2016 2008 2001 1997 1996 1996 1996 
1996 1996 1995 1995 1995 1995 1995 1995 1996 
1996 1996 1996 1997 1997 1998 1998 1999 2000 
2000 2000 2000 2000 2000 2001 2001 2002 2003 
2004 2005 2005 2005 2004 2002 2000 1997 1993 
1990 1987 1984 1981 1979 1979 1980 1983 1986 
1989 1992 1995 1998 2000 2002 2004 2004 2004 
2003 2001 1999 1997 1995 1996 2002 2019 2051 
2097 2137 2128 2035 1900 1828 1883 1973 2022 
2027 2016 2005 2000 1999 1999 1999 1997 1996 
1995 1994 1993 1994 1994 1994 1995 1995 1995 
1996 1996 1997 1997 1998 1999 2000 2000 2000 
2000 2000 2001 2001 2001 2002 2003 2003 2004 
2004 2004 2003 2000 1998 1994 1991 1987 1984 
1980 1976 1974 1973 1974 1977 1981 1985 1990 
1993 1997 2000 2002 2003 2003 2003 2002 2001 
1999 1997 1995 1994 1997 2005 2020 2039 2051 
2030 1959 1868 1832 1893 1978 2022 2027 2017 
2009 2006 2007 2007 2005 2001 1997 1994 1992 
1992 1992 1992 1993 1993 1994 1994 1995 1996 
1996 1997 1998 1999 2000 2000 2000 2000 2000 
2001 2001 2001 2002 2002 2003 2003 2003 2003 
2001 1999 1995 1991 1987 1983 1979 1974 1969 
1965 1964 1965 1969 1974 1980 1985 1990 1995 
1998 2000 2001 2002 2002 2001 2000 1998 1996 
1994 1994 1994 1998 2003 2009 2008 1988 1942 
1890 1876 1926 1987 2019 2022 2017 2016 2022 
2028 2028 2020 2010 2000 1994 1991 1990 1990 
1991 1992 1992 1993 1993 1994 1995 1996 1997 
1998 1999 2000 2000 2000 2000 2000 2001 2001 
2001 2002 2002 2002 2003 2002 2001 1999 1996 
1992 1987 1982 1977 1972 1966 1958 1946 1942 
1944 1948 1955 1962 1971 1978 1990 1994 1998 
2000 2000 2000 2000 1999 1997 1996 1994 1993 
1993 1994 1996 1997 1994 1980 1956 1930 1928 
1959 1995 2014 2018 2023 2038 2061 2081 2081 
2058 2030 2008 1996 1990 1988 1988 1989 1990 
1991 1992 1993 1994 1995 1996 1996 1998 1999 
2000 2000 2000 2000 2000 2000 2001 2001 2001 
2002 2002 2002 2001 2000 1998 1994 1986 1973 
1964 1958 1952 1945 1869 1640 1569 1570 1574 
1582 1589 1668 1674 1915 1919 1994 1995 1998 
1998 1998 1998 1997 1996 1994 1993 1993 1993 
1993 1993 1991 1984 1973 1963 1964 1981 1999 
2010 2021 2044 2088 2149 2196 2190 2131 2065 
2020 1998 1988 1986 1987 1988 1990 1991 1992 
1993 1993 1994 1995 1996 1998 1999 2000 2000 
2000 2000 2000 2000 2001 2001 2001 2001 2001 
2001 2000 1999 1996 1989 1910 1668 1589 1582 
1578 1568 1340 606.2 382.2 376.6 377.9 387.8 389.2 
688.2 690.5 1670 1673 1975 1976 1987 1988 1995 
1995 1996 1995 1994 1994 1993 1993 1993 1993 
1991 1988 1984 1981 1982 1990 1999 2010 2033 
2085 2178 2303 2392 2364 2232 2103 2027 1994 
1985 1984 1986 1988 1990 1991 1992 1993 1994 
1995 1996 1997 1998 1999 2000 2000 2000 2000 
2000 2001 2001 2001 2001 2001 2001 2001 2000 
1998 1995 1981 1673 688.9 388.3 378.6 378.1 376 
307 81.77 12.79 10.84 10.87 19.45 19.5 318.4 319 
1298 1299 1602 1602 1683 1684 1921 1921 1994 
1993 1995 1994 1994 1994 1993 1993 1992 1991 
1990 1989 1989 1993 1999 2014 2052 2134 2283 
2474 2595 2508 2272 2082 1994 1971 1972 1979 
1984 1988 1990 1991 1992 1993 1994 1995 1996 
1997 1998 1999 1990 1990 1990 1990 1990 1990 
1991 1991 1993 1993 1999 1998 2000 1998 1995 
1979 1602 390.4 21.41 10.83 10.83 10.79 8.814 2.299 
0.2976 0.2985 0.2995 2.327 2.329 75.01 74.98 312 311.7 
392.5 392.1 696.2 696.3 1684 1684 1987 1987 1995 
1995 1995 1994 1994 1994 1993 1993 1992 1992 
1992 1994 1999 2015 2057 2147 2301 2479 2538 
2355 2068 1903 1874 1907 1944 1969 1982 1988 
1991 1992 1993 1994 1995 1996 1996 1997 1998 
1999 1615 1616 1616 1616 1616 1616 1618 1618 
1690 1690 1926 1926 1998 1999 1996 1982 1603 
382.9 10.89 0.296 0.2962 0.297 0.298 0.2992 0.3005 0.3017 
0.3026 0.3035 0.3036 2.351 2.347 8.999 8.974 21.71 21.67 
394.3 394.2 1611 1612 1985 1985 1996 1996 1995 
1995 1995 1995 1994 1994 1993 1993 1993 1993 
1996 2005 2029 2075 2136 2161 2059 1827 1625 
1594 1691 1815 1907 1956 1979 1988 1992 1993 
1994 1995 1995 1996 1997 1998 1998 1999 387.7 
388.2 388.3 388.1 387.9 387.8 396.5 396.3 699.8 699.4 
1689 1689 1991 1999 1997 1984 1608 392.8 21.53 
8.869 2.31 0.2988 0.2997 0.3009 0.3022 0.3034 0.3045 0.3052 
0.3056 0.3054 0.3048 0.3038 0.3026 11.08 11.04 386.1 385.6 
1609 1609 1985 1985 1996 1996 1996 1996 1996 
1995 1995 1994 1994 1993 1993 1991 1990 1988 
1983 1965 1911 1791 1600 1410 1332 1416 1598 
1776 1894 1954 1979 1989 1993 1994 1995 1995 
1996 1997 1997 1998 1999 1999 11.08 11.1 11.11 
11.1 11.09 11.08 21.85 21.84 396.5 396.1 1617 1616 
1989 1999 1998 1988 1684 695.8 391.5 310.5 74.64 
2.323 0.3005 0.3017 0.3028 0.304 0.3051 0.3061 0.3068 0.3069 
0.3066 0.3057 0.3044 11.08 11.02 384.8 383.8 1602 1602 
1982 1982 1996 1996 1996 1996 1996 1995 1995 
1994 1994 1993 1992 1990 1987 1980 1965 1930 
1859 1742 1599 1493 1486 1588 1736 1861 1936 
1971 1986 1991 1993 1994 1995 1996 1996 1997 
1997 1998 1999 1999 0.3017 0.3026 0.3027 0.3024 0.3021 
0.3019 11.09 11.08 388 387.5 1615 1614 1990 2000 
1999 1996 1922 1685 1603 1298 311.5 8.945 0.3008 
0.3017 0.3028 0.3038 0.305 0.3061 0.307 0.3075 0.3075 0.307 
0.306 9.075 9.02 314.9 313.6 1372 1371 1910 1911 
1993 1993 1995 1995 1995 1995 1994 1994 1993 
1992 1991 1989 1986 1980 1968 1947 1910 1859 
1811 1795 1827 1886 1938 1970 1985 1991 1993 
1994 1994 1995 1995 1996 1996 1997 1997 1998 
1999 1999 0.3016 0.3025 0.3027 0.3024 0.3022 0.302 11.1 
11.08 388.1 387.6 1616 1615 1990 2000 2000 1999 
1996 1989 1976 1603 384.3 10.98 0.3007 0.3015 0.3023 
0.3033 0.3043 0.3054 0.3064 0.3072 0.3076 0.3077 0.307 2.371 
2.355 84.07 83.6 621.6 621 1679 1680 1985 1986 
1995 1995 1995 1994 1994 1993 1993 1992 1991 
1989 1986 1981 1975 1967 1959 1958 1972 2006 
2044 2056 2044 2024 2009 2000 1996 1995 1995 
1995 1995 1996 1996 1997 1997 1998 1999 1999 
0.3012 0.3019 0.3021 0.302 0.3019 0.3019 11.09 11.08 388.1 
387.6 1616 1615 1990 2000 2000 1999 1999 1999 
1988 1612 386.5 11.03 0.3005 0.3011 0.3017 0.3025 0.3034 
0.3044 0.3053 0.3062 0.307 0.3075 0.3074 0.3067 0.3049 13.16 
13.07 392.2 391.5 1608 1609 1983 1983 1995 1995 
1995 1994 1994 1993 1992 1992 1990 1989 1986 
1983 1979 1977 1980 1993 2020 2057 2083 2079 
2054 2028 2011 2001 1997 1995 1995 1995 1995 
1996 1996 1997 1997 1998 1999 1999 0.3007 0.3011 
0.3013 0.3014 0.3015 0.3016 11.09 11.08 387.9 387.5 1615 
1614 1990 2000 2000 2000 1999 1999 1988 1612 
386.5 11.03 0.3002 0.3006 0.3011 0.3017 0.3025 0.3033 0.3042 
0.3051 0.306 0.3068 0.3073 0.3069 0.3055 11.15 11.07 386.2 
385.2 1606 1607 1982 1983 1994 1995 1995 1994 
1994 1993 1993 1992 1991 1989 1987 1984 1982 
1981 1984 1995 2014 2037 2051 2047 2032 2016 
2005 1999 1997 1996 1996 1996 1996 1996 1997 
1997 1998 1998 1999 1999 0.3003 0.3005 0.3007 0.3009 
0.3013 0.3015 11.08 11.08 387.9 387.5 1615 1614 1990 
2000 2000 2000 2000 1999 1988 1613 386.5 11.02 
0.3 0.3002 0.3006 0.3011 0.3018 0.3025 0.3032 0.3041 0.305 
0.306 0.3069 0.3071 0.3062 11.13 11.05 384.9 383.5 1600 
1600 1979 1980 1994 1994 1995 1994 1994 1993 
1993 1992 1991 1990 1988 1986 1984 1983 1985 
1991 2001 2013 2020 2018 2011 2005 2000 1997 
1996 1996 1996 1996 1997 1997 1997 1998 1998 
1998 1999 1999 0.3 0.3001 0.3003 0.3007 0.3012 0.3015 
11.09 11.08 387.9 387.4 1615 1614 1990 2000 2000 
2000 2000 2000 1989 1613 386.5 11.02 0.2998 0.3 
0.3003 0.3008 0.3014 0.302 0.3027 0.3034 0.3043 0.3054 0.3066 
0.3072 0.3069 9.102 9.035 315 313.5 1370 1370 1908 
1909 1991 1992 1995 1995 1994 1994 1993 1993 
1992 1990 1989 1987 1985 1985 1986 1989 1994 
1999 2002 2002 2001 1998 1997 1996 1996 1996 
1997 1997 1997 1997 1998 1998 1998 1999 1999 
1999 0.2998 0.2998 0.3001 0.3006 0.3012 0.3017 11.09 11.08 
388 387.5 1615 1614 1990 2000 2000 2000 2000 
2000 1989 1615 395.2 21.69 8.939 2.326 0.3004 0.3007 
0.3013 0.3019 0.3025 0.3031 0.304 0.305 0.3063 0.3073 0.3073 
2.374 2.358 84.07 83.55 620.9 620.3 1678 1679 1984 
1985 1995 1995 1994 1994 1994 1993 1992 1991 
1990 1988 1987 1987 1987 1989 1992 1994 1996 
1996 1996 1996 1996 1996 1996 1997 1997 1998 
1998 1998 1999 1999 1999 1999 1999 2000 0.2997 
0.2996 0.2999 0.3006 0.3015 0.3021 11.11 11.1 388.3 387.7 
1616 1614 1990 2000 2000 2000 2000 2000 1991 
1688 698.3 393.2 312 74.95 2.33 0.301 0.3015 0.3021 
0.3025 0.3031 0.3038 0.3048 0.306 0.3071 0.3075 0.3069 0.3049 
13.15 13.06 391.6 391.1 1607 1608 1982 1983 1995 
1995 1994 1994 1994 1994 1993 1992 1991 1990 
1989 1988 1989 1990 1991 1993 1993 1994 1994 
1995 1995 1996 1997 1998 1998 1999 1999 1999 
2000 2000 2000 2000 2000 2000 0.2996 0.2995 0.2999 
0.3008 0.3018 0.3026 11.13 11.11 388.8 388 1616 1615 
1990 2000 2000 2000 2000 2000 1998 1926 1688 
1607 1303 312.5 8.971 0.3014 0.302 0.3024 0.3028 0.3031 
0.3037 0.3045 0.3056 0.3067 0.3073 0.3069 0.3053 11.14 11.05 
385.5 384.8 1606 1607 1983 1984 1995 1995 1995 
1995 1994 1994 1994 1994 1993 1992 1991 1990 
1990 1991 1992 1993 1993 1994 1994 1995 1996 
1997 1998 1999 2000 2001 2001 2001 2001 2001 
2001 2001 2000 2000 0.2995 0.2995 0.2999 0.3009 0.3022 
0.3033 11.16 11.14 389.6 388.6 1618 1616 1991 2001 
2001 2001 2001 2001 2001 1999 1993 1981 1608 
385.9 11.03 0.3022 0.3027 0.3029 0.3031 0.3033 0.3036 0.3043 
0.3052 0.3063 0.3071 0.3071 0.3059 11.17 11.08 386.5 385.5 
1608 1609 1985 1986 1997 1997 1996 1996 1995 
1995 1995 1995 1994 1993 1992 1992 1992 1992 
1993 1994 1994 1994 1995 1996 1998 1999 2001 
2003 2004 2004 2005 2004 2004 2003 2003 2002 
2001 2001 0.2995 0.2995 0.3 0.3012 0.3027 0.3041 11.14 
11.13 388.9 387.6 1613 1610 1983 1993 1992 1992 
1992 1992 1992 1993 1994 1985 1612 387.1 11.07 
0.3033 0.3036 0.3036 0.3035 0.3035 0.3037 0.3042 0.305 0.3061 
0.3072 0.3077 0.3069 11.21 11.13 388.1 386.9 1613 1613 
1989 1990 2000 2000 1999 1998 1997 1996 1996 
1996 1995 1995 1994 1993 1993 1994 1994 1995 
1995 1996 1997 1999 2001 2002 1997 1999 1999 
1999 1999 1998 1997 1996 1995 1993 1992 1991 
0.2995 0.2995 0.3001 0.3013 0.3031 0.3048 9.118 9.115 317 
315.8 1313 1311 1614 1621 1620 1619 1618 1618 
1619 1620 1621 1615 1313 315.5 9.066 0.3045 0.3046 
0.3043 0.3039 0.3037 0.3037 0.3041 0.305 0.3062 0.3076 0.3085 
0.3083 11.22 11.15 388.4 387 1612 1612 1987 1986 
1996 1995 1994 1992 1991 1989 1988 1987 1987 
1986 1986 1985 1985 1985 1986 1987 1988 1989 
1991 1994 1995 1928 1698 1700 1629 1629 1627 
1625 1624 1622 1620 1619 1617 1615 0.2996 0.2995 
0.3001 0.3013 0.3031 0.3051 2.378 2.381 76.52 76.27 316.6 
315.8 388.7 390.3 389.8 389.4 389.1 389 389.1 389.4 
390 388.6 316.1 76.14 2.369 0.3056 0.3053 0.3046 0.3041 
0.3037 0.3037 0.304 0.3048 0.3062 0.3078 0.3093 0.3097 9.208 
9.157 317.7 316.5 1318 1317 1623 1621 1628 1627 
1625 1623 1621 1619 1618 1616 1615 1615 1615 
1614 1614 1614 1614 1615 1616 1618 1621 1625 
1622 1392 631.5 632 398.5 398.2 391.1 390.6 390 
389.5 388.9 388.5 387.9 387.3 0.2996 0.2996 0.3001 0.3011 
0.3027 0.3047 0.3066 0.3075 2.383 2.378 9.122 9.104 11.15 
11.19 11.17 11.15 11.14 11.13 11.13 11.14 11.16 11.13 
9.098 2.372 0.3064 0.306 0.3053 0.3044 0.3038 0.3034 0.3033 
0.3036 0.3044 0.3057 0.3074 0.3092 0.3102 2.404 2.396 76.84 
76.6 318.5 318.3 392 391.5 392.9 392.3 391.8 391.3 
390.6 390 389.4 388.9 388.7 388.5 388.4 388.4 388.3 
388.2 388.1 388.3 388.7 389.3 390.2 391.3 390.2 319.2 
85.08 85.08 13.27 13.26 11.18 11.16 11.14 11.12 11.11 
11.09 11.07 11.05 0.2997 0.2997 0.3001 0.3008 0.302 0.3036 
0.3051 0.3062 0.3066 0.3065 0.3062 0.3059 0.3055 0.305 0.3044 
0.3039 0.3034 0.3032 0.3032 0.3035 0.304 0.3045 0.3052 0.3056 
0.3057 0.3052 0.3044 0.3036 0.303 0.3027 0.3026 0.3029 0.3035 
0.3046 0.306 0.3076 0.3088 0.3092 0.3089 0.3083 0.3078 0.3075 
0.3075 0.3072 0.3067 0.3061 0.3056 0.3052 0.3047 0.3042 0.3036 
0.3031 0.3027 0.3025 0.3024 0.3023 0.3023 0.3022 0.302 0.3018 
0.3019 0.3023 0.3028 0.3036 0.3044 0.3051 0.3056 0.3057 0.3056 
0.3052 0.3047 0.3042 0.3037 0.3032 0.3027 0.3023 0.3019 0.3014 
0.3007 0.2999 0.2999 0.3002 0.3007 0.3014 0.3024 0.3035 0.3044 
0.3049 0.3051 0.3051 0.305 0.3048 0.3044 0.3039 0.3034 0.303 
0.3027 0.3027 0.3029 0.3033 0.3037 0.3041 0.3043 0.3042 0.3037 
0.3031 0.3026 0.3022 0.302 0.3019 0.3021 0.3025 0.3032 0.3042 
0.3053 0.3063 0.3068 0.307 0.3068 0.3067 0.3067 0.3067 0.3066 
0.3061 0.3056 0.3052 0.3048 0.3045 0.304 0.3035 0.3031 0.3028 
0.3026 0.3025 0.3024 0.3024 0.3023 0.3021 0.3019 0.302 0.3023 
0.3028 0.3034 0.304 0.3046 0.3049 0.3049 0.3047 0.3044 0.304 
0.3036 0.3032 0.3028 0.3025 0.3021 0.3018 0.3014 0.3008 0.3 
0.3001 0.3003 0.3006 0.301 0.3016 0.3022 0.3028 0.3032 0.3034 
0.3035 0.3035 0.3034 0.3031 0.3027 0.3024 0.302 0.3018 0.3018 
0.3019 0.3021 0.3024 0.3026 0.3027 0.3026 0.3023 0.302 0.3017 
0.3015 0.3013 0.3013 0.3014 0.3016 0.302 0.3026 0.3033 0.3038 
0.3042 0.3044 0.3045 0.3045 0.3046 0.3047 0.3046 0.3044 0.304 
0.3037 0.3035 0.3033 0.303 0.3026 0.3023 0.3021 0.302 0.3019 
0.3019 0.3019 0.3018 0.3016 0.3015 0.3015 0.3017 0.3021 0.3025 
0.3029 0.3033 0.3035 0.3035 0.3033 0.3031 0.3028 0.3026 0.3023 
0.3021 0.3019 0.3017 0.3015 0.3012 0.3007 0.3001 0.3002 0.3004 
0.3006 0.3008 0.3011 0.3014 0.3017 0.3019 0.3021 0.3021 0.3021 
0.3021 0.3019 0.3017 0.3014 0.3012 0.3011 0.301 0.3011 0.3012 
0.3013 0.3014 0.3015 0.3015 0.3013 0.3012 0.301 0.3009 0.3009 
0.3009 0.3009 0.301 0.3012 0.3015 0.3018 0.3021 0.3023 0.3024 
0.3025 0.3026 0.3026 0.3027 0.3027 0.3026 0.3024 0.3022 0.3021 
0.302 0.3018 0.3016 0.3014 0.3013 0.3013 0.3012 0.3012 0.3012 
0.3011 0.301 0.3009 0.3009 0.3011 0.3013 0.3015 0.3018 0.3019 
0.302 0.302 0.3019 0.3018 0.3017 0.3015 0.3014 0.3013 0.3012 
0.3011 0.301 0.3008 0.3005 0.3001 0.3002 0.3003 0.3004 0.3005 
0.3006 0.3007 0.3008 0.3009 0.301 0.301 0.301 0.301 0.3009 
0.3008 0.3007 0.3006 0.3005 0.3004 0.3005 0.3005 0.3006 0.3006 
0.3007 0.3007 0.3006 0.3006 0.3005 0.3005 0.3004 0.3004 0.3005 
0.3005 0.3006 0.3007 0.3008 0.3009 0.301 0.301 0.3011 0.3011 
0.3012 0.3012 0.3012 0.3012 0.3011 0.301 0.301 0.3009 0.3008 
0.3007 0.3007 0.3006 0.3006 0.3006 0.3006 0.3006 0.3005 0.3005 
0.3004 0.3004 0.3005 0.3006 0.3007 0.3008 0.3009 0.3009 0.3009 
0.3008 0.3008 0.3007 0.3007 0.3006 0.3006 0.3005 0.3005 0.3005 
0.3004 0.3002 2000 2000 2000 2000 2000 2000 2000 
2000 2000 2000 2000 2000 2000 2000 2000 2000 
2000 2000 2000 2000 2000 2000 2000 2000 2000 
2000 2000 2000 2000 2000 2000 2000 2000 2000 
2000 2000 2000 2000 2000 2000 2000 2000 2000 
2000 2000 2000 2000 2000 2000 2000 2000 2000 
2000 2000 2000 2000 2000 2000 2000 2000 2000 
2000 2000 2000 2000 2000 2000 2000 2000 2000 
2000 2000 2000 2000 2000 2000 2000 2000 2000 
2000 2000 2000 2000 2000 2000 2000 2000 2000 
1999 1999 1999 1999 1999 1999 2000 2000 2000 
2000 2000 2000 2000 2000 2000 1999 1999 1999 
1999 1999 1999 1999 1999 1999 1999 1999 1999 
1999 1999 1999 1999 1999 1999 1999 1999 1999 
2000 2000 2000 2000 2000 2000 2000 2000 2000 
2000 2000 2000 2000 2000 2000 2000 2000 2000 
2000 2000 2000 2000 2000 2000 2000 2000 2000 
2000 2000 2000 2000 2000 2000 2000 2000 2000 
2000 2000 2000 1999 1999 1999 1999 1999 1999 
1999 1999 1999 1999 1999 1999 1999 1999 1999 
1999 1999 1999 1999 1999 1999 1999 1999 1999 