# vtk DataFile Version 3.0
wst0Inv5_model.02   UTM: None 
ASCII
DATASET RECTILINEAR_GRID
DIMENSIONS 74 68 47
X_COORDINATES 74 float
-621279.5 -554779.5 -503779.5 -465779.5 -442279.5 -429779.5 -421279.5 -411559.5 -400373.5 -389697.5 -378282.5 -364587.5 -351167.5 -339302.5 -325592.5 -309717.5 -296376.5 -285960.5 -273825.5 -263865.5 -243690.5 -213800.5 -196779.5 -185168.5 -169878.5 -157469.0 -148390.5 -138946.5 -126901.5 -113631.5 -101901.5 -88521.5 -72576.5 -57231.5 -41726.5 -24716.5 -7361.5 3742.5 16361.5 37826.5 56291.5 70606.5 85036.5 97011.5 108246.5 117780.5 128079.5 141019.5 152129.5 165209.5 181034.5 194424.5 207774.5 226509.5 245384.5 257275.5 265373.5 274229.5 283378.5 291891.5 300760.5 313306.5 328156.5 339440.5 351489.5 372634.5 401839.5 421279.5 429779.5 442279.5 465779.5 503779.5 554779.5 621279.5 
Y_COORDINATES 68 float
-655361.5 -588861.5 -537861.5 -499861.5 -476861.5 -465061.5 -456261.5 -442646.5 -426221.5 -410436.5 -384706.5 -363951.5 -342376.5 -313896.5 -292211.5 -268831.5 -247746.5 -227286.5 -211311.5 -203973.5 -190850.5 -166940.5 -144085.5 -127430.5 -107225.5 -83465.5 -63095.5 -43620.5 -26135.5 -9835.5 12179.5 36134.5 60039.5 79994.5 92141.5 103348.5 118403.5 134218.5 151668.5 171158.5 187333.5 200558.5 215083.5 230808.5 244743.5 256087.5 266981.5 281156.5 295501.5 305742.5 318913.5 331085.5 341897.5 355012.5 366467.5 377228.5 390889.5 407514.5 422674.5 438409.5 449453.0 456261.5 465061.5 476861.5 499861.5 537861.5 588861.5 655361.5 
Z_COORDINATES 47 float
-5.0 -12.339 -18.111 -26.584 -39.019 -57.269 -84.059 -116.669 -155.584 -207.479 -276.679 -368.974 -492.024 -656.124 -874.974 -1129.474 -1421.924 -1790.124 -2253.624 -2837.124 -3571.724 -4496.624 -5661.124 -7127.124 -8972.624 -11058.624 -13397.624 -16231.624 -19665.124 -23824.624 -28863.624 -34968.624 -42365.124 -51326.124 -62185.124 -75340.124 -91275.124 -108735.124 -127720.124 -150020.124 -176215.124 -206985.124 -243130.124 -285585.124 -335450.124 -394025.124 -462830.124 
POINT_DATA 236504
SCALARS Resistivity float
LOOKUP_TABLE default
8004.0
8010.0
8012.0
8016.0
8016.0
8014.0
8014.0
8014.0
8015.0
8016.0
8018.0
8018.0
8020.0
8020.0
8020.0
8020.0
8019.0
8020.0
8022.0
8025.0
8027.0
8027.0
8026.0
8025.0
8023.0
8023.0
8025.0
8027.0
8031.0
8036.0
8042.0
8048.0
8050.0
8050.0
8047.0
8041.0
8031.0
8024.0
8016.0
8010.0
8006.0
8002.0
8000.0
7998.0
7997.0
7997.0
7996.0
7998.0
8000.0
8001.0
8003.0
8005.0
8006.0
8006.0
8005.0
8005.0
8004.0
8002.0
8001.0
8000.0
7998.0
7997.0
7996.0
7995.0
7996.0
7996.0
7997.0
7997.0
7999.0
7999.0
8000.0
8000.0
8001.0
8001.0
8008.0
8015.0
8022.0
8025.0
8026.0
8024.0
8023.0
8023.0
8025.0
8029.0
8030.0
8032.0
8033.0
8034.0
8035.0
8035.0
8034.0
8034.0
8037.0
8041.0
8046.0
8047.0
8044.0
8042.0
8040.0
8040.0
8044.0
8048.0
8056.0
8067.0
8077.0
8087.0
8093.0
8093.0
8085.0
8071.0
8055.0
8039.0
8026.0
8015.0
8006.0
7998.0
7994.0
7990.0
7989.0
7990.0
7990.0
7992.0
7994.0
7998.0
8001.0
8005.0
8007.0
8009.0
8011.0
8010.0
8007.0
8005.0
8002.0
8000.0
7996.0
7993.0
7992.0
7989.0
7989.0
7990.0
7992.0
7993.0
7997.0
7999.0
8000.0
8002.0
8001.0
8002.0
8008.0
8017.0
8024.0
8028.0
8027.0
8027.0
8026.0
8027.0
8030.0
8032.0
8034.0
8036.0
8038.0
8040.0
8041.0
8040.0
8039.0
8039.0
8042.0
8047.0
8051.0
8053.0
8050.0
8047.0
8046.0
8047.0
8052.0
8059.0
8070.0
8084.0
8099.0
8111.0
8117.0
8116.0
8103.0
8082.0
8060.0
8041.0
8025.0
8012.0
8000.0
7991.0
7982.0
7979.0
7976.0
7975.0
7975.0
7978.0
7982.0
7987.0
7996.0
8003.0
8006.0
8011.0
8013.0
8012.0
8011.0
8006.0
8003.0
7997.0
7993.0
7988.0
7987.0
7984.0
7983.0
7984.0
7987.0
7990.0
7994.0
7999.0
8001.0
8003.0
8003.0
8002.0
8007.0
8014.0
8021.0
8024.0
8025.0
8024.0
8025.0
8026.0
8028.0
8030.0
8033.0
8035.0
8036.0
8037.0
8038.0
8037.0
8036.0
8036.0
8038.0
8040.0
8045.0
8047.0
8046.0
8044.0
8042.0
8044.0
8049.0
8058.0
8070.0
8085.0
8100.0
8114.0
8117.0
8111.0
8092.0
8069.0
8044.0
8029.0
8018.0
8008.0
7996.0
7983.0
7973.0
7966.0
7960.0
7954.0
7952.0
7955.0
7960.0
7967.0
7984.0
7998.0
8004.0
8007.0
8010.0
8011.0
8012.0
8008.0
8002.0
7996.0
7992.0
7986.0
7982.0
7981.0
7979.0
7980.0
7983.0
7988.0
7993.0
7998.0
8001.0
8002.0
8004.0
8002.0
8005.0
8009.0
8015.0
8017.0
8020.0
8019.0
8019.0
8020.0
8022.0
8025.0
8028.0
8029.0
8031.0
8031.0
8032.0
8031.0
8030.0
8028.0
8030.0
8032.0
8035.0
8034.0
8033.0
8032.0
8031.0
8035.0
8040.0
8049.0
8061.0
8075.0
8089.0
8098.0
8097.0
8082.0
8056.0
8027.0
8010.0
8008.0
8013.0
8013.0
8001.0
7984.0
7969.0
7960.0
7945.0
7931.0
7920.0
7915.0
7916.0
7927.0
7959.0
7988.0
8000.0
8001.0
8003.0
8006.0
8010.0
8008.0
8006.0
7998.0
7990.0
7986.0
7980.0
7978.0
7977.0
7978.0
7984.0
7987.0
7993.0
7998.0
8001.0
8002.0
8002.0
8003.0
8003.0
8007.0
8010.0
8013.0
8012.0
8014.0
8015.0
8016.0
8017.0
8019.0
8022.0
8023.0
8026.0
8026.0
8027.0
8026.0
8023.0
8022.0
8021.0
8024.0
8026.0
8026.0
8024.0
8023.0
8023.0
8027.0
8031.0
8041.0
8050.0
8062.0
8073.0
8077.0
8069.0
8042.0
8004.0
7970.0
7963.0
7990.0
8025.0
8041.0
8028.0
8003.0
7985.0
7968.0
7943.0
7907.0
7872.0
7845.0
7824.0
7839.0
7908.0
7968.0
7989.0
7987.0
7986.0
7994.0
8005.0
8009.0
8006.0
7998.0
7992.0
7985.0
7980.0
7978.0
7978.0
7979.0
7981.0
7989.0
7992.0
7997.0
8000.0
8003.0
8003.0
8002.0
8002.0
8005.0
8008.0
8009.0
8010.0
8010.0
8012.0
8013.0
8014.0
8016.0
8020.0
8021.0
8022.0
8025.0
8025.0
8023.0
8022.0
8021.0
8020.0
8020.0
8021.0
8019.0
8017.0
8017.0
8017.0
8019.0
8025.0
8033.0
8044.0
8055.0
8064.0
8064.0
8051.0
8015.0
7964.0
7924.0
7933.0
7999.0
8080.0
8122.0
8104.0
8071.0
8054.0
8033.0
7985.0
7909.0
7816.0
7727.0
7656.0
7678.0
7817.0
7944.0
7983.0
7968.0
7958.0
7972.0
7994.0
8009.0
8009.0
8003.0
7994.0
7985.0
7980.0
7978.0
7978.0
7979.0
7982.0
7987.0
7993.0
7996.0
8000.0
8003.0
8004.0
8003.0
8002.0
8004.0
8006.0
8008.0
8009.0
8009.0
8009.0
8012.0
8013.0
8016.0
8017.0
8021.0
8025.0
8027.0
8027.0
8028.0
8025.0
8024.0
8022.0
8020.0
8019.0
8019.0
8015.0
8014.0
8015.0
8015.0
8020.0
8030.0
8042.0
8055.0
8069.0
8077.0
8074.0
8052.0
8005.0
7964.0
7989.0
8098.0
8234.0
8304.0
8282.0
8259.0
8272.0
8254.0
8154.0
7991.0
7788.0
7585.0
7432.0
7469.0
7718.0
7949.0
8014.0
7965.0
7925.0
7936.0
7972.0
8003.0
8012.0
8007.0
7996.0
7984.0
7977.0
7974.0
7974.0
7976.0
7979.0
7986.0
7992.0
7995.0
8000.0
8003.0
8004.0
8004.0
8002.0
8003.0
8007.0
8008.0
8009.0
8009.0
8009.0
8012.0
8014.0
8016.0
8020.0
8024.0
8028.0
8033.0
8036.0
8037.0
8037.0
8033.0
8029.0
8026.0
8024.0
8022.0
8017.0
8014.0
8013.0
8015.0
8019.0
8031.0
8046.0
8064.0
8090.0
8125.0
8174.0
8218.0
8232.0
8221.0
8253.0
8380.0
8550.0
8647.0
8662.0
8736.0
8868.0
8856.0
8610.0
8255.0
7866.0
7505.0
7270.0
7351.0
7741.0
8085.0
8159.0
8037.0
7919.0
7898.0
7940.0
7986.0
8011.0
8013.0
8000.0
7984.0
7974.0
7971.0
7970.0
7972.0
7977.0
7985.0
7991.0
7997.0
8000.0
8005.0
8005.0
8004.0
8002.0
8006.0
8008.0
8010.0
8009.0
8009.0
8009.0
8010.0
8011.0
8014.0
8019.0
8025.0
8033.0
8040.0
8049.0
8053.0
8053.0
8050.0
8044.0
8037.0
8034.0
8028.0
8020.0
8017.0
8016.0
8016.0
8019.0
8031.0
8052.0
8079.0
8121.0
8203.0
8342.0
8520.0
8671.0
8736.0
8766.0
8858.0
9017.0
9176.0
9392.0
9847.0
10350.0
10340.0
9666.0
8831.0
8120.0
7602.0
7343.0
7513.0
8033.0
8455.0
8496.0
8248.0
7994.0
7890.0
7905.0
7963.0
8011.0
8027.0
8014.0
7991.0
7973.0
7967.0
7965.0
7968.0
7975.0
7984.0
7992.0
7997.0
8003.0
8006.0
8007.0
8005.0
8003.0
8005.0
8009.0
8010.0
8010.0
8008.0
8008.0
8006.0
8007.0
8010.0
8016.0
8024.0
8036.0
8050.0
8064.0
8077.0
8080.0
8076.0
8066.0
8056.0
8046.0
8037.0
8029.0
8024.0
8021.0
8018.0
8020.0
8032.0
8060.0
8097.0
8149.0
8257.0
8462.0
8745.0
9009.0
9163.0
9212.0
9280.0
9450.0
9810.0
10630.0
12130.0
13670.0
13700.0
11940.0
9996.0
8660.0
7936.0
7700.0
7958.0
8527.0
8943.0
8920.0
8556.0
8160.0
7939.0
7900.0
7959.0
8041.0
8087.0
8074.0
8032.0
7992.0
7972.0
7967.0
7970.0
7977.0
7986.0
7994.0
8001.0
8006.0
8007.0
8008.0
8006.0
8003.0
8007.0
8009.0
8011.0
8010.0
8008.0
8005.0
8003.0
7998.0
7999.0
8007.0
8017.0
8036.0
8059.0
8087.0
8111.0
8120.0
8114.0
8098.0
8079.0
8063.0
8050.0
8040.0
8034.0
8033.0
8031.0
8034.0
8055.0
8102.0
8152.0
8203.0
8300.0
8473.0
8680.0
8854.0
9003.0
9137.0
9306.0
9612.0
10370.0
12240.0
15680.0
19450.0
19840.0
16130.0
12180.0
9758.0
8614.0
8268.0
8460.0
8892.0
9159.0
9068.0
8712.0
8309.0
8044.0
7970.0
8050.0
8192.0
8290.0
8276.0
8178.0
8077.0
8012.0
7987.0
7981.0
7986.0
7993.0
8001.0
8005.0
8010.0
8011.0
8010.0
8006.0
8004.0
8008.0
8011.0
8011.0
8012.0
8010.0
8007.0
7998.0
7988.0
7986.0
7992.0
8008.0
8034.0
8072.0
8118.0
8164.0
8183.0
8173.0
8145.0
8112.0
8084.0
8062.0
8051.0
8047.0
8052.0
8059.0
8081.0
8138.0
8248.0
8365.0
8481.0
8637.0
8801.0
8840.0
8749.0
8759.0
8935.0
9210.0
9620.0
10610.0
13090.0
17780.0
23150.0
24250.0
19470.0
14180.0
10930.0
9406.0
8844.0
8803.0
8916.0
8901.0
8737.0
8531.0
8323.0
8170.0
8159.0
8325.0
8588.0
8787.0
8774.0
8573.0
8328.0
8149.0
8054.0
8017.0
8007.0
8007.0
8008.0
8010.0
8012.0
8013.0
8012.0
8007.0
8003.0
8008.0
8012.0
8014.0
8014.0
8015.0
8009.0
7996.0
7976.0
7967.0
7976.0
7998.0
8036.0
8092.0
8166.0
8242.0
8276.0
8259.0
8210.0
8153.0
8108.0
8074.0
8061.0
8064.0
8081.0
8119.0
8199.0
8362.0
8628.0
8950.0
9350.0
9882.0
10330.0
10250.0
9683.0
9259.0
9174.0
9272.0
9479.0
10130.0
11880.0
15080.0
18650.0
19630.0
16840.0
13370.0
11020.0
9781.0
9221.0
9002.0
8838.0
8589.0
8366.0
8302.0
8309.0
8329.0
8454.0
8774.0
9244.0
9645.0
9710.0
9377.0
8879.0
8462.0
8213.0
8096.0
8050.0
8030.0
8021.0
8017.0
8016.0
8013.0
8011.0
8006.0
8005.0
8008.0
8013.0
8017.0
8021.0
8025.0
8018.0
7994.0
7963.0
7950.0
7962.0
7994.0
8049.0
8127.0
8233.0
8341.0
8389.0
8359.0
8281.0
8197.0
8130.0
8085.0
8068.0
8081.0
8128.0
8229.0
8436.0
8811.0
9392.0
10140.0
11260.0
12940.0
14560.0
14750.0
13290.0
11660.0
10550.0
9841.0
9436.0
9462.0
10180.0
11620.0
13200.0
13760.0
12820.0
11450.0
10410.0
9755.0
9377.0
9130.0
8845.0
8484.0
8227.0
8212.0
8320.0
8450.0
8685.0
9143.0
9835.0
10550.0
10870.0
10520.0
9719.0
8959.0
8471.0
8229.0
8122.0
8068.0
8039.0
8023.0
8016.0
8014.0
8010.0
8007.0
8004.0
8007.0
8011.0
8017.0
8024.0
8032.0
8024.0
7994.0
7949.0
7937.0
7954.0
8000.0
8075.0
8173.0
8297.0
8429.0
8481.0
8435.0
8333.0
8225.0
8141.0
8087.0
8072.0
8102.0
8197.0
8408.0
8819.0
9533.0
10570.0
11920.0
14050.0
17920.0
22560.0
24550.0
22030.0
17790.0
14040.0
11440.0
9889.0
9198.0
9248.0
9844.0
10600.0
10910.0
10570.0
10090.0
9700.0
9431.0
9257.0
9097.0
8829.0
8473.0
8224.0
8197.0
8291.0
8415.0
8629.0
9047.0
9735.0
10620.0
11300.0
11220.0
10360.0
9378.0
8715.0
8381.0
8222.0
8127.0
8067.0
8033.0
8015.0
8010.0
8006.0
8003.0
8003.0
8005.0
8007.0
8014.0
8022.0
8031.0
8023.0
7990.0
7943.0
7936.0
7954.0
8006.0
8100.0
8207.0
8323.0
8448.0
8493.0
8438.0
8329.0
8217.0
8128.0
8075.0
8069.0
8126.0
8285.0
8628.0
9294.0
10410.0
11930.0
13620.0
16030.0
20930.0
27810.0
32370.0
30560.0
24350.0
17740.0
13070.0
10420.0
9209.0
9008.0
9439.0
10010.0
10140.0
9771.0
9339.0
9049.0
8920.0
8885.0
8830.0
8651.0
8379.0
8191.0
8154.0
8191.0
8237.0
8320.0
8513.0
8914.0
9589.0
10370.0
10670.0
10150.0
9340.0
8775.0
8511.0
8362.0
8230.0
8123.0
8053.0
8018.0
8005.0
8002.0
8000.0
8000.0
8001.0
8003.0
8006.0
8013.0
8020.0
8015.0
7985.0
7952.0
7949.0
7956.0
7995.0
8094.0
8190.0
8272.0
8359.0
8390.0
8346.0
8260.0
8166.0
8090.0
8047.0
8054.0
8137.0
8350.0
8802.0
9664.0
11090.0
12890.0
14310.0
15630.0
18440.0
22390.0
25190.0
24690.0
21100.0
16280.0
12440.0
10120.0
9054.0
9031.0
9697.0
10410.0
10450.0
9852.0
9205.0
8779.0
8605.0
8574.0
8548.0
8433.0
8275.0
8182.0
8150.0
8127.0
8096.0
8067.0
8085.0
8239.0
8653.0
9288.0
9716.0
9516.0
9030.0
8747.0
8696.0
8625.0
8443.0
8245.0
8107.0
8034.0
8006.0
7998.0
7998.0
8000.0
7998.0
7997.0
7998.0
8003.0
8008.0
8008.0
7999.0
7993.0
7998.0
7979.0
7977.0
8052.0
8121.0
8167.0
8210.0
8230.0
8207.0
8156.0
8094.0
8037.0
8006.0
8027.0
8129.0
8364.0
8825.0
9661.0
11000.0
12630.0
13560.0
13780.0
14650.0
16040.0
17050.0
17020.0
15540.0
13110.0
10960.0
9488.0
8792.0
9003.0
9891.0
10750.0
10790.0
10130.0
9406.0
8902.0
8648.0
8525.0
8425.0
8319.0
8259.0
8265.0
8234.0
8153.0
8064.0
7988.0
7949.0
8009.0
8269.0
8730.0
9095.0
9035.0
8794.0
8815.0
9054.0
9097.0
8833.0
8482.0
8224.0
8082.0
8020.0
7999.0
7997.0
7999.0
7995.0
7993.0
7990.0
7993.0
8002.0
8020.0
8046.0
8083.0
8111.0
8074.0
8019.0
8049.0
8088.0
8110.0
8126.0
8128.0
8113.0
8081.0
8040.0
7998.0
7981.0
8023.0
8160.0
8421.0
8833.0
9472.0
10450.0
11620.0
12190.0
12150.0
12510.0
13280.0
14020.0
14270.0
13460.0
11880.0
10440.0
9369.0
8722.0
8873.0
9648.0
10410.0
10500.0
10020.0
9485.0
9108.0
8872.0
8663.0
8450.0
8298.0
8288.0
8367.0
8342.0
8216.0
8089.0
8005.0
7970.0
8016.0
8205.0
8541.0
8823.0
8823.0
8740.0
9000.0
9514.0
9699.0
9350.0
8819.0
8406.0
8169.0
8055.0
8011.0
7999.0
7997.0
7993.0
7989.0
7986.0
7991.0
8006.0
8037.0
8096.0
8180.0
8244.0
8219.0
8142.0
8141.0
8166.0
8186.0
8179.0
8150.0
8114.0
8079.0
8044.0
8015.0
8025.0
8128.0
8362.0
8724.0
9126.0
9554.0
10140.0
10880.0
11260.0
11270.0
11680.0
12570.0
13570.0
14200.0
13700.0
12350.0
11130.0
10010.0
9082.0
8915.0
9329.0
9812.0
9878.0
9599.0
9323.0
9178.0
9056.0
8826.0
8528.0
8314.0
8309.0
8431.0
8419.0
8274.0
8125.0
8033.0
8007.0
8053.0
8203.0
8460.0
8701.0
8755.0
8735.0
9040.0
9617.0
9910.0
9621.0
9063.0
8577.0
8269.0
8106.0
8033.0
8007.0
7997.0
7993.0
7988.0
7986.0
7990.0
8006.0
8042.0
8108.0
8200.0
8281.0
8294.0
8263.0
8288.0
8340.0
8374.0
8346.0
8276.0
8209.0
8162.0
8135.0
8135.0
8207.0
8425.0
8838.0
9378.0
9817.0
10060.0
10310.0
10740.0
10960.0
10920.0
11260.0
11970.0
12840.0
13540.0
13460.0
12720.0
11990.0
11070.0
9971.0
9512.0
9549.0
9720.0
9625.0
9301.0
9080.0
9035.0
9001.0
8826.0
8551.0
8347.0
8355.0
8496.0
8488.0
8316.0
8142.0
8041.0
8013.0
8050.0
8162.0
8353.0
8542.0
8584.0
8482.0
8539.0
8830.0
9127.0
9144.0
8899.0
8584.0
8323.0
8152.0
8057.0
8016.0
7998.0
7993.0
7989.0
7987.0
7990.0
8005.0
8035.0
8092.0
8175.0
8262.0
8332.0
8370.0
8411.0
8468.0
8507.0
8486.0
8411.0
8349.0
8328.0
8335.0
8387.0
8545.0
8887.0
9454.0
10100.0
10540.0
10640.0
10720.0
11000.0
11140.0
11000.0
11160.0
11410.0
11680.0
11960.0
12000.0
11860.0
11760.0
11300.0
10480.0
10080.0
10050.0
10190.0
9950.0
9357.0
8915.0
8738.0
8671.0
8579.0
8440.0
8338.0
8399.0
8545.0
8511.0
8307.0
8114.0
8011.0
7983.0
8002.0
8064.0
8173.0
8271.0
8230.0
7990.0
7739.0
7678.0
7886.0
8203.0
8401.0
8411.0
8303.0
8175.0
8079.0
8027.0
7999.0
7994.0
7991.0
7989.0
7994.0
8009.0
8043.0
8103.0
8193.0
8313.0
8448.0
8535.0
8532.0
8533.0
8558.0
8566.0
8536.0
8540.0
8598.0
8663.0
8762.0
8958.0
9311.0
9796.0
10240.0
10460.0
10540.0
10650.0
10940.0
11090.0
11050.0
11210.0
11120.0
10780.0
10510.0
10300.0
10190.0
10160.0
9884.0
9457.0
9524.0
10070.0
10830.0
10780.0
9849.0
9051.0
8626.0
8424.0
8351.0
8332.0
8365.0
8495.0
8623.0
8519.0
8265.0
8061.0
7968.0
7946.0
7958.0
8000.0
8091.0
8195.0
8194.0
7980.0
7640.0
7402.0
7456.0
7785.0
8131.0
8304.0
8296.0
8198.0
8102.0
8036.0
8000.0
7999.0
7994.0
7992.0
8000.0
8024.0
8071.0
8160.0
8296.0
8479.0
8675.0
8778.0
8695.0
8623.0
8623.0
8657.0
8695.0
8831.0
9028.0
9137.0
9214.0
9345.0
9563.0
9773.0
9819.0
9752.0
9805.0
9965.0
10200.0
10390.0
10620.0
11050.0
10950.0
10350.0
9764.0
9351.0
9130.0
9012.0
8774.0
8606.0
9072.0
10290.0
11890.0
12100.0
10780.0
9611.0
8954.0
8590.0
8423.0
8405.0
8503.0
8671.0
8744.0
8551.0
8255.0
8055.0
7976.0
7958.0
7956.0
7997.0
8120.0
8314.0
8449.0
8382.0
8121.0
7849.0
7768.0
7945.0
8201.0
8345.0
8335.0
8235.0
8127.0
8051.0
8002.0
8001.0
7998.0
7998.0
8008.0
8039.0
8110.0
8239.0
8441.0
8692.0
8914.0
8973.0
8818.0
8703.0
8691.0
8760.0
8924.0
9293.0
9693.0
9770.0
9694.0
9695.0
9792.0
9830.0
9621.0
9320.0
9269.0
9343.0
9450.0
9646.0
10090.0
10740.0
10790.0
10270.0
9722.0
9282.0
9026.0
8920.0
8737.0
8664.0
9289.0
10890.0
12970.0
13230.0
11610.0
10290.0
9567.0
9090.0
8758.0
8611.0
8651.0
8778.0
8792.0
8582.0
8338.0
8203.0
8150.0
8109.0
8072.0
8094.0
8249.0
8530.0
8789.0
8893.0
8809.0
8618.0
8470.0
8460.0
8506.0
8506.0
8421.0
8285.0
8156.0
8063.0
8004.0
8005.0
8001.0
8001.0
8011.0
8045.0
8125.0
8285.0
8547.0
8865.0
9087.0
9060.0
8862.0
8746.0
8749.0
8895.0
9275.0
9984.0
10590.0
10460.0
10060.0
9891.0
9969.0
10020.0
9744.0
9280.0
9053.0
8973.0
8956.0
9106.0
9550.0
10160.0
10380.0
10240.0
10060.0
9788.0
9559.0
9505.0
9339.0
9174.0
9650.0
11080.0
12900.0
13050.0
11650.0
10680.0
10200.0
9735.0
9221.0
8847.0
8705.0
8712.0
8699.0
8605.0
8556.0
8578.0
8575.0
8503.0
8417.0
8419.0
8588.0
8899.0
9208.0
9490.0
9713.0
9722.0
9528.0
9246.0
8977.0
8744.0
8531.0
8336.0
8180.0
8074.0
8007.0
8006.0
8003.0
7998.0
7997.0
8009.0
8055.0
8184.0
8448.0
8831.0
9124.0
9085.0
8896.0
8793.0
8795.0
9031.0
9672.0
10750.0
11490.0
10950.0
10100.0
9710.0
9764.0
9849.0
9589.0
9089.0
8806.0
8731.0
8780.0
8977.0
9352.0
9807.0
10150.0
10420.0
10620.0
10520.0
10270.0
10220.0
10020.0
9679.0
9853.0
10830.0
12110.0
12270.0
11510.0
11200.0
11140.0
10660.0
9860.0
9151.0
8731.0
8558.0
8518.0
8575.0
8766.0
8995.0
9095.0
9061.0
9002.0
9043.0
9232.0
9500.0
9781.0
10290.0
11040.0
11430.0
11110.0
10330.0
9563.0
9009.0
8633.0
8373.0
8196.0
8081.0
8007.0
8007.0
8001.0
7988.0
7970.0
7945.0
7926.0
7968.0
8178.0
8617.0
9077.0
9186.0
9099.0
9002.0
8939.0
9201.0
10030.0
11340.0
12140.0
11200.0
9917.0
9306.0
9257.0
9317.0
9126.0
8754.0
8581.0
8652.0
8873.0
9151.0
9420.0
9734.0
10150.0
10620.0
10890.0
10790.0
10550.0
10540.0
10360.0
9890.0
9793.0
10320.0
11140.0
11460.0
11460.0
11940.0
12310.0
11770.0
10590.0
9504.0
8800.0
8448.0
8348.0
8453.0
8737.0
9062.0
9285.0
9409.0
9524.0
9688.0
9884.0
10030.0
10220.0
10930.0
12230.0
13070.0
12570.0
11230.0
9988.0
9160.0
8668.0
8372.0
8189.0
8077.0
8007.0
8007.0
7998.0
7983.0
7953.0
7905.0
7843.0
7824.0
7975.0
8411.0
8981.0
9297.0
9416.0
9391.0
9245.0
9450.0
10320.0
11740.0
12600.0
11510.0
9945.0
9073.0
8822.0
8791.0
8677.0
8496.0
8485.0
8695.0
9023.0
9280.0
9380.0
9580.0
10030.0
10460.0
10480.0
10250.0
10130.0
10290.0
10220.0
9732.0
9460.0
9648.0
10120.0
10540.0
11070.0
12090.0
12800.0
12260.0
10920.0
9674.0
8864.0
8450.0
8323.0
8399.0
8594.0
8821.0
9076.0
9354.0
9619.0
9819.0
9899.0
9848.0
9900.0
10570.0
11890.0
12810.0
12380.0
11080.0
9847.0
9037.0
8575.0
8313.0
8158.0
8065.0
8008.0
8006.0
7997.0
7982.0
7954.0
7908.0
7846.0
7820.0
7947.0
8337.0
8895.0
9320.0
9652.0
9794.0
9638.0
9743.0
10490.0
11780.0
12700.0
11740.0
10110.0
9033.0
8580.0
8454.0
8414.0
8422.0
8594.0
8968.0
9429.0
9691.0
9659.0
9786.0
10280.0
10610.0
10240.0
9727.0
9540.0
9691.0
9680.0
9272.0
8979.0
9030.0
9346.0
9800.0
10500.0
11540.0
12200.0
11710.0
10560.0
9482.0
8802.0
8468.0
8379.0
8422.0
8500.0
8611.0
8874.0
9235.0
9522.0
9615.0
9503.0
9279.0
9205.0
9627.0
10520.0
11190.0
10960.0
10120.0
9289.0
8725.0
8401.0
8219.0
8113.0
8047.0
8006.0
8005.0
7996.0
7983.0
7962.0
7926.0
7886.0
7885.0
8035.0
8432.0
8969.0
9393.0
9808.0
10090.0
9978.0
9939.0
10360.0
11260.0
12000.0
11340.0
9988.0
8948.0
8434.0
8288.0
8345.0
8543.0
8942.0
9579.0
10280.0
10640.0
10500.0
10530.0
11070.0
11370.0
10610.0
9640.0
9149.0
9087.0
9024.0
8746.0
8559.0
8623.0
8910.0
9354.0
9968.0
10700.0
11090.0
10670.0
9818.0
9073.0
8618.0
8413.0
8365.0
8394.0
8438.0
8563.0
8903.0
9314.0
9535.0
9457.0
9166.0
8829.0
8658.0
8830.0
9287.0
9648.0
9569.0
9158.0
8723.0
8416.0
8237.0
8134.0
8071.0
8032.0
8004.0
8003.0
7998.0
7987.0
7973.0
7954.0
7935.0
7959.0
8126.0
8523.0
9031.0
9395.0
9757.0
10060.0
9974.0
9794.0
9863.0
10280.0
10730.0
10400.0
9545.0
8777.0
8355.0
8271.0
8428.0
8797.0
9440.0
10370.0
11300.0
11690.0
11420.0
11420.0
12140.0
12620.0
11450.0
9934.0
9030.0
8684.0
8522.0
8358.0
8317.0
8484.0
8843.0
9355.0
9951.0
10480.0
10600.0
10120.0
9387.0
8816.0
8498.0
8357.0
8314.0
8319.0
8368.0
8549.0
8960.0
9416.0
9589.0
9394.0
8996.0
8605.0
8375.0
8378.0
8557.0
8718.0
8702.0
8534.0
8345.0
8205.0
8122.0
8073.0
8043.0
8019.0
8003.0
8002.0
7998.0
7998.0
8003.0
8015.0
8039.0
8102.0
8254.0
8545.0
8892.0
9131.0
9370.0
9583.0
9522.0
9322.0
9233.0
9389.0
9674.0
9614.0
9207.0
8737.0
8431.0
8398.0
8583.0
9004.0
9743.0
10770.0
11670.0
11880.0
11560.0
11730.0
12860.0
13660.0
12260.0
10300.0
9078.0
8516.0
8266.0
8184.0
8279.0
8573.0
9077.0
9755.0
10450.0
10900.0
10800.0
10190.0
9450.0
8916.0
8612.0
8451.0
8374.0
8342.0
8365.0
8525.0
8916.0
9395.0
9583.0
9359.0
8930.0
8525.0
8267.0
8181.0
8216.0
8274.0
8273.0
8214.0
8145.0
8091.0
8059.0
8040.0
8025.0
8012.0
8003.0
8006.0
8006.0
8014.0
8045.0
8103.0
8193.0
8311.0
8443.0
8576.0
8694.0
8798.0
8920.0
9023.0
8972.0
8835.0
8774.0
8900.0
9176.0
9323.0
9223.0
8952.0
8687.0
8614.0
8698.0
8981.0
9560.0
10380.0
11020.0
11030.0
10790.0
11190.0
12560.0
13590.0
12260.0
10300.0
9062.0
8450.0
8171.0
8150.0
8339.0
8721.0
9322.0
10080.0
10780.0
11100.0
10920.0
10420.0
9861.0
9393.0
9034.0
8777.0
8611.0
8516.0
8473.0
8537.0
8835.0
9316.0
9535.0
9314.0
8891.0
8499.0
8239.0
8116.0
8087.0
8094.0
8094.0
8078.0
8055.0
8039.0
8030.0
8022.0
8018.0
8008.0
8007.0
8008.0
8012.0
8029.0
8070.0
8149.0
8270.0
8406.0
8505.0
8516.0
8505.0
8573.0
8655.0
8685.0
8624.0
8543.0
8563.0
8753.0
9084.0
9358.0
9404.0
9199.0
8907.0
8740.0
8675.0
8748.0
9057.0
9555.0
9916.0
9849.0
9714.0
10130.0
11280.0
12130.0
11210.0
9770.0
8847.0
8375.0
8150.0
8180.0
8393.0
8764.0
9310.0
9952.0
10460.0
10650.0
10620.0
10560.0
10420.0
10100.0
9646.0
9218.0
8917.0
8728.0
8595.0
8552.0
8744.0
9173.0
9376.0
9166.0
8789.0
8455.0
8227.0
8104.0
8052.0
8037.0
8033.0
8027.0
8022.0
8017.0
8017.0
8016.0
8012.0
8008.0
8009.0
8013.0
8017.0
8029.0
8059.0
8114.0
8190.0
8259.0
8272.0
8224.0
8231.0
8401.0
8554.0
8575.0
8491.0
8419.0
8479.0
8709.0
9054.0
9334.0
9368.0
9133.0
8818.0
8627.0
8533.0
8549.0
8727.0
9019.0
9189.0
9058.0
8910.0
9119.0
9768.0
10260.0
9767.0
8956.0
8476.0
8284.0
8212.0
8276.0
8434.0
8686.0
9072.0
9503.0
9809.0
9931.0
10070.0
10380.0
10590.0
10410.0
9935.0
9424.0
9050.0
8798.0
8606.0
8493.0
8591.0
8908.0
9044.0
8862.0
8599.0
8377.0
8216.0
8113.0
8058.0
8031.0
8020.0
8014.0
8010.0
8012.0
8013.0
8014.0
8012.0
8007.0
8012.0
8018.0
8021.0
8026.0
8036.0
8049.0
8056.0
8035.0
7970.0
7909.0
7988.0
8272.0
8512.0
8547.0
8425.0
8311.0
8348.0
8549.0
8845.0
9088.0
9118.0
8917.0
8649.0
8498.0
8460.0
8523.0
8682.0
8859.0
8889.0
8702.0
8514.0
8524.0
8772.0
8990.0
8720.0
8305.0
8162.0
8275.0
8413.0
8508.0
8551.0
8621.0
8800.0
9054.0
9266.0
9413.0
9625.0
9939.0
10110.0
9955.0
9578.0
9185.0
8891.0
8680.0
8507.0
8388.0
8422.0
8607.0
8662.0
8534.0
8413.0
8323.0
8234.0
8149.0
8087.0
8048.0
8027.0
8015.0
8010.0
8009.0
8010.0
8012.0
8011.0
8007.0
8015.0
8025.0
8029.0
8030.0
8029.0
8020.0
7996.0
7945.0
7874.0
7846.0
7976.0
8283.0
8524.0
8528.0
8344.0
8156.0
8132.0
8259.0
8478.0
8716.0
8857.0
8806.0
8639.0
8520.0
8510.0
8598.0
8740.0
8833.0
8767.0
8573.0
8414.0
8357.0
8418.0
8502.0
8332.0
8087.0
8095.0
8368.0
8637.0
8746.0
8691.0
8587.0
8551.0
8621.0
8739.0
8856.0
8981.0
9095.0
9095.0
8974.0
8811.0
8667.0
8560.0
8464.0
8358.0
8272.0
8275.0
8354.0
8361.0
8300.0
8306.0
8317.0
8274.0
8197.0
8124.0
8073.0
8040.0
8022.0
8014.0
8011.0
8011.0
8012.0
8012.0
8008.0
8019.0
8032.0
8039.0
8041.0
8038.0
8032.0
8014.0
7984.0
7957.0
7982.0
8134.0
8399.0
8584.0
8548.0
8316.0
8076.0
8004.0
8070.0
8230.0
8485.0
8754.0
8857.0
8757.0
8622.0
8565.0
8607.0
8691.0
8715.0
8621.0
8485.0
8419.0
8408.0
8449.0
8547.0
8492.0
8339.0
8335.0
8511.0
8702.0
8787.0
8716.0
8543.0
8367.0
8289.0
8306.0
8357.0
8391.0
8373.0
8303.0
8241.0
8227.0
8254.0
8280.0
8272.0
8227.0
8172.0
8150.0
8165.0
8156.0
8158.0
8242.0
8308.0
8294.0
8223.0
8146.0
8089.0
8051.0
8028.0
8017.0
8013.0
8012.0
8014.0
8011.0
8008.0
8022.0
8039.0
8047.0
8052.0
8053.0
8052.0
8052.0
8054.0
8072.0
8138.0
8292.0
8511.0
8667.0
8649.0
8446.0
8200.0
8099.0
8116.0
8221.0
8453.0
8753.0
8906.0
8817.0
8640.0
8516.0
8482.0
8494.0
8483.0
8419.0
8364.0
8370.0
8406.0
8505.0
8736.0
8915.0
8943.0
8891.0
8824.0
8786.0
8785.0
8704.0
8509.0
8280.0
8129.0
8082.0
8087.0
8081.0
8043.0
7989.0
7958.0
7991.0
8066.0
8137.0
8167.0
8151.0
8112.0
8077.0
8056.0
8048.0
8094.0
8204.0
8283.0
8277.0
8216.0
8147.0
8093.0
8055.0
8031.0
8019.0
8016.0
8016.0
8014.0
8013.0
8008.0
8022.0
8040.0
8051.0
8056.0
8059.0
8060.0
8068.0
8087.0
8125.0
8200.0
8336.0
8518.0
8685.0
8748.0
8653.0
8459.0
8319.0
8260.0
8293.0
8453.0
8686.0
8803.0
8714.0
8534.0
8390.0
8318.0
8298.0
8291.0
8276.0
8275.0
8302.0
8362.0
8532.0
8919.0
9381.0
9690.0
9705.0
9480.0
9247.0
9109.0
8902.0
8601.0
8316.0
8130.0
8052.0
8035.0
8023.0
8003.0
7974.0
7943.0
7958.0
8022.0
8096.0
8138.0
8139.0
8110.0
8068.0
8029.0
8021.0
8085.0
8194.0
8258.0
8247.0
8192.0
8130.0
8085.0
8053.0
8032.0
8023.0
8018.0
8018.0
8018.0
8016.0
8009.0
8022.0
8040.0
8049.0
8053.0
8052.0
8054.0
8060.0
8077.0
8107.0
8162.0
8255.0
8391.0
8554.0
8705.0
8767.0
8674.0
8473.0
8301.0
8248.0
8330.0
8483.0
8561.0
8499.0
8372.0
8262.0
8199.0
8179.0
8179.0
8185.0
8199.0
8236.0
8321.0
8539.0
8994.0
9598.0
10100.0
10240.0
10050.0
9770.0
9534.0
9168.0
8731.0
8402.0
8217.0
8147.0
8136.0
8128.0
8109.0
8067.0
8003.0
7985.0
8032.0
8108.0
8164.0
8180.0
8162.0
8117.0
8060.0
8037.0
8102.0
8193.0
8236.0
8214.0
8160.0
8106.0
8068.0
8043.0
8030.0
8024.0
8022.0
8022.0
8022.0
8018.0
8010.0
8021.0
8035.0
8043.0
8042.0
8039.0
8037.0
8039.0
8044.0
8059.0
8085.0
8136.0
8234.0
8409.0
8678.0
8954.0
8999.0
8695.0
8341.0
8159.0
8155.0
8238.0
8298.0
8280.0
8221.0
8165.0
8129.0
8115.0
8111.0
8108.0
8121.0
8177.0
8295.0
8521.0
8913.0
9403.0
9800.0
9902.0
9735.0
9532.0
9365.0
9044.0
8655.0
8412.0
8308.0
8297.0
8331.0
8339.0
8287.0
8188.0
8065.0
8014.0
8063.0
8151.0
8222.0
8250.0
8238.0
8190.0
8115.0
8065.0
8100.0
8166.0
8192.0
8165.0
8114.0
8067.0
8041.0
8030.0
8026.0
8027.0
8027.0
8028.0
8026.0
8021.0
8011.0
8017.0
8029.0
8033.0
8031.0
8026.0
8021.0
8018.0
8017.0
8020.0
8034.0
8074.0
8184.0
8435.0
8873.0
9379.0
9529.0
9063.0
8480.0
8140.0
8042.0
8068.0
8111.0
8127.0
8117.0
8100.0
8083.0
8069.0
8048.0
8032.0
8051.0
8141.0
8279.0
8463.0
8719.0
9003.0
9200.0
9215.0
9105.0
9035.0
9010.0
8826.0
8549.0
8413.0
8398.0
8460.0
8550.0
8570.0
8469.0
8288.0
8106.0
8039.0
8103.0
8210.0
8285.0
8307.0
8288.0
8233.0
8144.0
8068.0
8070.0
8108.0
8123.0
8096.0
8052.0
8015.0
8002.0
8011.0
8025.0
8032.0
8035.0
8035.0
8032.0
8023.0
8012.0
8015.0
8025.0
8025.0
8022.0
8015.0
8009.0
8003.0
8003.0
8006.0
8027.0
8096.0
8272.0
8660.0
9308.0
10010.0
10170.0
9528.0
8734.0
8243.0
8047.0
8013.0
8033.0
8053.0
8064.0
8062.0
8053.0
8034.0
8006.0
7989.0
8030.0
8150.0
8276.0
8382.0
8499.0
8637.0
8728.0
8737.0
8725.0
8791.0
8875.0
8776.0
8542.0
8440.0
8461.0
8561.0
8680.0
8702.0
8567.0
8340.0
8129.0
8057.0
8138.0
8257.0
8325.0
8328.0
8290.0
8227.0
8139.0
8061.0
8040.0
8056.0
8056.0
8031.0
7987.0
7956.0
7960.0
7992.0
8023.0
8040.0
8045.0
8043.0
8036.0
8026.0
8014.0
8013.0
8019.0
8021.0
8015.0
8008.0
8002.0
7998.0
7997.0
8004.0
8038.0
8136.0
8376.0
8858.0
9615.0
10350.0
10450.0
9750.0
8912.0
8371.0
8125.0
8045.0
8033.0
8042.0
8051.0
8053.0
8047.0
8029.0
8009.0
8011.0
8080.0
8207.0
8290.0
8303.0
8320.0
8398.0
8478.0
8528.0
8596.0
8728.0
8840.0
8752.0
8524.0
8411.0
8423.0
8500.0
8594.0
8617.0
8515.0
8327.0
8143.0
8073.0
8147.0
8253.0
8302.0
8291.0
8244.0
8184.0
8114.0
8052.0
8028.0
8028.0
8020.0
7992.0
7948.0
7919.0
7935.0
7985.0
8030.0
8051.0
8054.0
8048.0
8038.0
8027.0
8014.0
8011.0
8016.0
8017.0
8010.0
8005.0
7998.0
7994.0
7995.0
8005.0
8043.0
8145.0
8379.0
8824.0
9476.0
10060.0
10100.0
9546.0
8887.0
8437.0
8208.0
8114.0
8077.0
8066.0
8064.0
8064.0
8060.0
8052.0
8053.0
8083.0
8171.0
8287.0
8324.0
8266.0
8228.0
8302.0
8408.0
8481.0
8555.0
8672.0
8753.0
8663.0
8452.0
8321.0
8283.0
8289.0
8325.0
8359.0
8343.0
8265.0
8149.0
8075.0
8101.0
8165.0
8200.0
8194.0
8164.0
8126.0
8084.0
8047.0
8031.0
8031.0
8025.0
8002.0
7967.0
7945.0
7962.0
8013.0
8053.0
8065.0
8062.0
8049.0
8038.0
8027.0
8013.0
8009.0
8015.0
8014.0
8009.0
8003.0
7999.0
7995.0
7995.0
8006.0
8038.0
8116.0
8283.0
8573.0
8968.0
9314.0
9361.0
9092.0
8732.0
8450.0
8279.0
8186.0
8134.0
8104.0
8087.0
8082.0
8082.0
8090.0
8116.0
8181.0
8297.0
8420.0
8450.0
8360.0
8290.0
8370.0
8480.0
8525.0
8547.0
8603.0
8640.0
8559.0
8386.0
8248.0
8161.0
8105.0
8097.0
8136.0
8185.0
8190.0
8127.0
8041.0
8013.0
8035.0
8065.0
8084.0
8085.0
8075.0
8059.0
8048.0
8048.0
8059.0
8070.0
8073.0
8067.0
8057.0
8061.0
8084.0
8093.0
8082.0
8064.0
8048.0
8034.0
8023.0
8011.0
8008.0
8014.0
8013.0
8009.0
8004.0
7999.0
7995.0
7996.0
8006.0
8032.0
8085.0
8178.0
8311.0
8477.0
8643.0
8743.0
8732.0
8620.0
8471.0
8345.0
8255.0
8190.0
8138.0
8110.0
8102.0
8107.0
8129.0
8180.0
8281.0
8440.0
8610.0
8676.0
8590.0
8496.0
8560.0
8637.0
8614.0
8559.0
8555.0
8571.0
8514.0
8376.0
8237.0
8122.0
8035.0
8001.0
8033.0
8095.0
8130.0
8090.0
8003.0
7946.0
7940.0
7968.0
8007.0
8034.0
8045.0
8049.0
8056.0
8072.0
8099.0
8135.0
8170.0
8194.0
8193.0
8170.0
8142.0
8111.0
8080.0
8054.0
8038.0
8028.0
8017.0
8009.0
8008.0
8015.0
8014.0
8010.0
8005.0
8001.0
7998.0
7999.0
8008.0
8027.0
8060.0
8103.0
8143.0
8185.0
8272.0
8422.0
8563.0
8574.0
8481.0
8373.0
8290.0
8222.0
8165.0
8129.0
8126.0
8138.0
8163.0
8220.0
8338.0
8527.0
8737.0
8843.0
8772.0
8655.0
8690.0
8724.0
8649.0
8547.0
8523.0
8555.0
8528.0
8416.0
8275.0
8145.0
8046.0
8002.0
8017.0
8061.0
8090.0
8064.0
7991.0
7933.0
7915.0
7936.0
7980.0
8019.0
8038.0
8048.0
8068.0
8096.0
8135.0
8179.0
8223.0
8248.0
8232.0
8174.0
8115.0
8072.0
8044.0
8031.0
8023.0
8018.0
8014.0
8008.0
8009.0
8016.0
8016.0
8011.0
8007.0
8003.0
8001.0
8003.0
8009.0
8022.0
8042.0
8059.0
8061.0
8064.0
8131.0
8300.0
8474.0
8489.0
8399.0
8315.0
8269.0
8231.0
8187.0
8162.0
8177.0
8200.0
8207.0
8232.0
8313.0
8472.0
8657.0
8752.0
8680.0
8564.0
8590.0
8627.0
8570.0
8488.0
8487.0
8554.0
8562.0
8468.0
8326.0
8188.0
8087.0
8034.0
8031.0
8052.0
8068.0
8052.0
8006.0
7964.0
7945.0
7954.0
7993.0
8027.0
8041.0
8050.0
8080.0
8117.0
8152.0
8187.0
8214.0
8219.0
8184.0
8114.0
8052.0
8020.0
8008.0
8010.0
8011.0
8011.0
8009.0
8005.0
8009.0
8017.0
8019.0
8015.0
8010.0
8005.0
8006.0
8007.0
8011.0
8022.0
8037.0
8048.0
8053.0
8066.0
8138.0
8286.0
8402.0
8350.0
8249.0
8213.0
8242.0
8267.0
8257.0
8258.0
8322.0
8364.0
8331.0
8268.0
8254.0
8331.0
8454.0
8514.0
8457.0
8381.0
8426.0
8496.0
8492.0
8448.0
8457.0
8540.0
8562.0
8483.0
8348.0
8217.0
8117.0
8061.0
8043.0
8048.0
8056.0
8050.0
8028.0
8006.0
7989.0
7990.0
8017.0
8041.0
8039.0
8043.0
8080.0
8124.0
8155.0
8172.0
8176.0
8161.0
8118.0
8056.0
8008.0
7990.0
7991.0
7997.0
8002.0
8005.0
8005.0
8004.0
8010.0
8017.0
8019.0
8017.0
8014.0
8009.0
8008.0
8010.0
8017.0
8028.0
8045.0
8067.0
8096.0
8143.0
8234.0
8344.0